/*--------------------------------*- C++ -*----------------------------------*\
  =========                 |
  \\      /  F ield         | OpenFOAM: The Open Source CFD Toolbox
   \\    /   O peration     | Website:  https://openfoam.org
    \\  /    A nd           | Version:  10
     \\/     M anipulation  |
\*---------------------------------------------------------------------------*/
FoamFile
{
    format      ascii;
    class       volScalarField;
    location    "10000";
    object      omega;
}
// * * * * * * * * * * * * * * * * * * * * * * * * * * * * * * * * * * * * * //

dimensions      [0 0 -1 0 0 0 0];

internalField   nonuniform List<scalar> 
400
(
61665
61665
61665
61665
10112.3
10112.3
10112.3
10112.3
3334.8
3334.8
3334.8
3334.8
1551.58
1551.58
1551.58
1551.58
875.812
875.802
875.801
875.795
558.68
558.665
558.664
558.654
386.937
386.92
386.92
386.909
283.492
283.478
283.478
283.47
215.944
215.934
215.935
215.929
169.298
169.291
169.293
169.289
135.826
135.821
135.822
135.82
111.077
111.073
111.074
111.072
92.3215
92.3176
92.3185
92.3174
77.8135
77.8099
77.8103
77.8098
66.3944
66.3907
66.3909
66.3907
57.2721
57.2681
57.2679
57.2681
49.8908
49.8864
49.8859
49.8863
43.8513
43.8464
43.8455
43.8462
38.8614
38.8559
38.8546
38.8555
34.7029
34.6967
34.6951
34.6962
31.2106
31.2036
31.2016
31.2029
28.2571
28.2495
28.247
28.2484
25.7434
25.7351
25.7322
25.7337
23.5913
23.5823
23.5789
23.5805
21.7385
21.729
21.7251
21.7267
20.1351
20.125
20.1205
20.1222
18.7404
18.73
18.7248
18.7265
17.5214
17.5107
17.505
17.5066
16.451
16.4402
16.4338
16.4354
15.507
15.4963
15.4891
15.4905
14.6709
14.6604
14.6525
14.6536
13.9274
13.9173
13.9087
13.9094
13.2638
13.2543
13.245
13.2451
12.6696
12.6609
12.6509
12.6501
12.1359
12.128
12.1175
12.1157
11.6553
11.6482
11.6374
11.6344
11.2216
11.2153
11.2043
11.2
10.8295
10.824
10.8131
10.8073
10.4745
10.4696
10.4592
10.4516
10.1528
10.1485
10.1387
10.1293
9.86109
9.85732
9.84813
9.83686
9.59642
9.59309
9.5846
9.57145
9.35617
9.35323
9.34537
9.33043
9.13799
9.13536
9.12796
9.11146
8.93969
8.9373
8.93018
8.91236
8.75923
8.75702
8.75008
8.73103
8.59468
8.5926
8.58577
8.56554
8.44418
8.4422
8.4354
8.41403
8.30595
8.30404
8.29721
8.2747
8.17822
8.17636
8.16945
8.1458
8.05926
8.05744
8.0504
8.0256
7.94733
7.94553
7.93833
7.91237
7.84063
7.83881
7.83144
7.80431
7.7372
7.73533
7.72778
7.69948
7.63505
7.63304
7.62536
7.59587
7.53243
7.5302
7.52245
7.49173
7.42809
7.42557
7.41786
7.38586
7.32123
7.31836
7.31084
7.2775
7.21146
7.20828
7.20105
7.16631
7.09888
7.09567
7.08854
7.05249
6.98412
6.98113
6.9738
6.93673
6.8681
6.8653
6.85763
6.81993
6.75174
6.74919
6.74098
6.70294
6.63583
6.63393
6.62454
6.58644
6.52094
6.52032
6.5088
6.47088
6.40749
6.40835
6.39418
6.35651
6.29564
6.29616
6.28155
6.24333
6.1852
6.18509
6.1704
6.13131
6.07476
6.07515
6.06055
6.02037
5.96447
5.96582
5.95181
5.91044
5.85543
5.85768
5.84331
5.80151
5.74716
5.75004
5.73538
5.69334
5.6394
5.64267
5.62798
5.5858
5.53203
5.53557
5.52099
5.47877
5.42502
5.42892
5.41426
5.37218
5.31837
5.3229
5.30769
5.26597
5.21209
5.21744
5.20132
5.16012
5.10621
5.11203
5.09537
5.05464
5.00079
5.00603
4.99018
4.94955
4.89604
4.89936
4.88598
4.8449
4.79243
4.79163
4.78315
4.74072
4.69106
4.68419
4.68177
4.63705
4.59422
4.57969
4.58132
4.53412
4.49377
4.47833
4.48037
4.43292
4.39425
4.37818
4.38012
4.33357
4.29593
4.27979
4.28187
4.23576
4.19899
4.18347
4.18569
4.13978
4.10344
4.08955
4.09134
4.04609
4.00888
3.9986
3.99751
3.95546
3.91353
3.91237
3.90478
3.86793
3.8273
3.82999
3.81152
3.7846
3.74493
3.74731
3.72797
3.70324
3.66666
3.66913
3.64976
3.62551
3.59313
3.59604
3.57727
3.55218
3.52517
3.52846
3.51167
3.48399
3.46389
3.4659
3.45306
3.42204
3.41036
3.40408
3.40009
3.36831
3.36423
3.35865
3.35414
3.32176
3.32737
3.32637
3.31713
3.28385
3.30199
3.29449
3.29674
3.25586
)
;

boundaryField
{
    inlet
    {
        type            cyclic;
    }
    outlet
    {
        type            cyclic;
    }
    fixedWalls-bottom
    {
        beta1           0.075;
        blended         0;
        type            omegaWallFunction;
        value           uniform 61665;
    }
    fixedWalls-top
    {
        type            symmetry;
    }
    frontAndBack
    {
        type            empty;
    }
}


// ************************************************************************* //
