/*--------------------------------*- C++ -*----------------------------------*\
  =========                 |
  \\      /  F ield         | OpenFOAM: The Open Source CFD Toolbox
   \\    /   O peration     | Website:  https://openfoam.org
    \\  /    A nd           | Version:  10
     \\/     M anipulation  |
\*---------------------------------------------------------------------------*/
FoamFile
{
    format      ascii;
    class       surfaceScalarField;
    location    "10000";
    object      phi;
}
// * * * * * * * * * * * * * * * * * * * * * * * * * * * * * * * * * * * * * //

dimensions      [0 3 -1 0 0 0 0];

internalField   nonuniform List<scalar> 
696
(
6.38551e-05
-8.68604e-19
6.38551e-05
1.52522e-19
6.38551e-05
3.10555e-19
-1.6161e-19
0.000194578
-1.1825e-18
0.000194578
4.92029e-19
0.000194578
1.12013e-18
-5.61362e-19
0.000330204
-2.12961e-18
0.000330204
8.86597e-19
0.000330204
2.27729e-18
-1.07195e-18
0.000470862
-3.07416e-18
0.000470862
1.4986e-18
0.000470862
3.59366e-18
-1.64193e-18
0.000616684
-5.01387e-18
0.000616684
1.8122e-18
0.000616684
5.67615e-18
-2.0679e-18
0.000767803
-6.96886e-18
0.000767803
2.20197e-18
0.000767803
7.92495e-18
-2.37547e-18
0.000924356
-9.69875e-18
0.000924356
2.32793e-18
0.000924356
1.07079e-17
-2.63034e-18
0.00108648
-1.30101e-17
0.00108648
2.39606e-18
0.00108648
1.43308e-17
-2.72929e-18
0.00125432
-1.67949e-17
0.00125432
2.17133e-18
0.00125432
1.82304e-17
-2.35968e-18
0.00142801
-2.13501e-17
0.00142801
2.01329e-18
0.00142801
2.28651e-17
-2.12107e-18
0.00160771
-2.68291e-17
0.00160771
1.46063e-18
0.00160771
2.83953e-17
-1.64119e-18
0.00179356
-3.21914e-17
0.00179356
1.08393e-18
0.00179356
3.43026e-17
-1.27579e-18
0.00198571
-3.88934e-17
0.00198571
3.07798e-19
0.00198571
4.0569e-17
-4.12931e-19
0.0021843
-4.48683e-17
0.0021843
2.4758e-19
0.0021843
4.68341e-17
3.61917e-19
0.00238951
-5.16313e-17
0.00238951
-1.03078e-18
0.00238951
5.37347e-17
1.30806e-18
0.00260148
-5.78012e-17
0.00260148
-2.22789e-18
0.00260148
6.09211e-17
1.78231e-18
0.00282037
-6.5175e-17
0.00282037
-3.48389e-18
0.00282037
6.78897e-17
2.9714e-18
0.00304635
-7.14637e-17
0.00304635
-5.22053e-18
0.00304635
7.40398e-17
5.06507e-18
0.00327957
-7.82091e-17
0.00327957
-6.36891e-18
0.00327957
7.96028e-17
7.28618e-18
0.0035202
-8.50676e-17
0.0035202
-8.75853e-18
0.0035202
8.68463e-17
9.39777e-18
0.00376841
-9.12969e-17
0.00376841
-1.1272e-17
0.00376841
9.29056e-17
1.19519e-17
0.00402436
-9.91345e-17
0.00402436
-1.3921e-17
0.00402436
1.01053e-16
1.37479e-17
0.00428823
-1.06708e-16
0.00428823
-1.65699e-17
0.00428823
1.0709e-16
1.73374e-17
0.00456019
-1.12852e-16
0.00456019
-1.91324e-17
0.00456019
1.12991e-16
2.03157e-17
0.00484041
-1.20107e-16
0.00484041
-2.22783e-17
0.00484041
1.18437e-16
2.53764e-17
0.00512906
-1.25754e-16
0.00512906
-2.54861e-17
0.00512906
1.24486e-16
2.88069e-17
0.00542633
-1.3103e-16
0.00542633
-2.6921e-17
0.00542633
1.30317e-16
2.96893e-17
0.00573238
-1.34018e-16
0.00573238
-3.02074e-17
0.00573238
1.34391e-16
3.27494e-17
0.00604739
-1.38244e-16
0.00604739
-3.35769e-17
0.00604739
1.40342e-16
3.37907e-17
0.00637155
-1.41474e-16
0.00637155
-3.5687e-17
0.00637155
1.43087e-16
3.68786e-17
0.00670502
-1.45587e-16
0.00670502
-3.5918e-17
0.00670502
1.46387e-16
3.84407e-17
0.007048
-1.48155e-16
0.007048
-3.42869e-17
0.007048
1.47995e-16
3.73614e-17
0.00740066
-1.51112e-16
0.00740066
-3.19644e-17
0.00740066
1.50607e-16
3.56815e-17
0.00776317
-1.49107e-16
0.00776317
-2.85907e-17
0.00776317
1.48978e-16
3.19337e-17
0.00813572
-1.4936e-16
0.00813572
-2.19188e-17
0.00813572
1.5085e-16
2.40456e-17
0.00851849
-1.49042e-16
0.00851849
-1.28574e-17
0.00851849
1.49353e-16
1.5911e-17
0.00891165
-1.47461e-16
0.00891165
-4.88414e-18
0.00891165
1.47255e-16
6.56776e-18
0.00931538
-1.45606e-16
0.00931538
6.07628e-18
0.00931538
1.43515e-16
-1.74613e-18
0.00972985
-1.47153e-16
0.00972985
1.34323e-17
0.00972985
1.43117e-16
-7.31199e-18
0.0101552
-1.49605e-16
0.0101552
2.1842e-17
0.0101552
1.43655e-16
-1.62221e-17
0.0105917
-1.46247e-16
0.0105917
3.15335e-17
0.0105917
1.41714e-16
-2.59953e-17
0.0110394
-1.43466e-16
0.0110394
3.52142e-17
0.0110394
1.39832e-16
-3.04375e-17
0.0114986
-1.3627e-16
0.0114986
3.74693e-17
0.0114986
1.34953e-16
-3.28563e-17
0.0119693
-1.35418e-16
0.0119693
4.173e-17
0.0119693
1.30607e-16
-3.50327e-17
0.0124518
-1.33413e-16
0.0124518
4.20217e-17
0.0124518
1.25633e-16
-3.25785e-17
0.0129461
-1.29355e-16
0.0129461
4.28573e-17
0.0129461
1.20788e-16
-3.35998e-17
0.0134525
-1.18217e-16
0.0134525
3.98093e-17
0.0134525
1.1254e-16
-3.26564e-17
0.0139711
-1.09554e-16
0.0139711
3.87235e-17
0.0139711
1.05355e-16
-3.39573e-17
0.014502
-1.00934e-16
0.014502
3.81312e-17
0.014502
9.74636e-17
-3.38917e-17
0.0150454
-9.57913e-17
0.0150454
3.55903e-17
0.0150454
9.31231e-17
-3.26829e-17
0.0156013
-9.22363e-17
0.0156013
3.10147e-17
0.0156013
9.30737e-17
-3.00565e-17
0.0161699
-9.58064e-17
0.0161699
2.95544e-17
0.0161699
9.26249e-17
-2.64071e-17
0.0167513
-9.47126e-17
0.0167513
2.61177e-17
0.0167513
9.10851e-17
-2.02074e-17
0.0173456
-9.80502e-17
0.0173456
2.46252e-17
0.0173456
9.14009e-17
-1.55237e-17
0.0179529
-1.00905e-16
0.0179529
2.35905e-17
0.0179529
9.24634e-17
-1.1088e-17
0.0185732
-1.02177e-16
0.0185732
2.42434e-17
0.0185732
9.00668e-17
-7.01528e-18
0.0192066
-1.00762e-16
0.0192066
3.31774e-17
0.0192066
8.32456e-17
-1.14921e-17
0.0198532
-1.00469e-16
0.0198532
3.24119e-17
0.0198532
8.12466e-17
-5.00524e-18
0.0205129
-9.00439e-17
0.0205129
3.40495e-17
0.0205129
7.52148e-17
-8.78818e-18
0.0211859
-8.07427e-17
0.0211859
3.73324e-17
0.0211859
6.48001e-17
-1.29437e-17
0.0218721
-7.08359e-17
0.0218721
4.70108e-17
0.0218721
5.55773e-17
-2.34333e-17
0.0225715
-6.26849e-17
0.0225715
5.12092e-17
0.0225715
4.91736e-17
-3.0154e-17
0.0232841
-5.0008e-17
0.0232841
5.64229e-17
0.0232841
3.88658e-17
-3.639e-17
0.0240098
-3.98393e-17
0.0240098
5.34816e-17
0.0240098
3.11516e-17
-3.39679e-17
0.0247484
-3.50829e-17
0.0247484
5.16185e-17
0.0247484
2.20894e-17
-2.75994e-17
0.0255001
-2.60829e-17
0.0255001
4.10095e-17
0.0255001
1.22291e-17
-1.95927e-17
0.0262645
-2.48396e-17
0.0262645
4.1426e-17
0.0262645
4.25898e-18
-8.50473e-18
0.0270416
-1.70498e-17
0.0270416
3.95341e-17
0.0270416
-5.68984e-18
-9.9252e-18
0.0278311
-7.12393e-18
0.0278311
3.93562e-17
0.0278311
-1.42942e-17
-1.14063e-17
0.0286329
4.05647e-18
0.0286329
4.02716e-17
0.0286329
-1.9558e-17
-1.59529e-17
0.0294467
1.28918e-17
0.0294467
3.87528e-17
0.0294467
-2.86283e-17
-1.66107e-17
0.0302723
1.33368e-17
0.0302723
3.87613e-17
0.0302723
-2.52138e-17
-1.93953e-17
0.0311092
1.3384e-17
0.0311092
4.18968e-17
0.0311092
-2.25508e-17
-2.43838e-17
0.0319573
-5.22633e-18
0.0319573
4.44652e-17
0.0319573
-1.5841e-17
-1.1848e-17
0.0328159
-1.66389e-18
0.0328159
4.91076e-17
0.0328159
-1.87636e-17
-2.16449e-17
0.0336849
-1.58432e-17
0.0336849
4.52726e-17
0.0336849
-4.91844e-18
-1.60681e-17
0.0345635
-7.40623e-18
0.0345635
3.57562e-17
0.0345635
-7.28886e-18
-2.03917e-17
0.0354514
-4.99118e-18
0.0354514
3.57008e-17
0.0354514
-1.37422e-17
-1.19976e-17
0.0363478
-2.11829e-18
0.0363478
4.12021e-17
0.0363478
-2.29648e-17
-6.6249e-18
0.0372522
-1.3303e-18
0.0372522
3.42143e-17
0.0372522
-3.09408e-17
3.27669e-18
0.0381639
1.1472e-17
0.0381639
1.98764e-17
0.0381639
-3.42411e-17
8.0222e-18
0.0390821
1.5892e-17
0.0390821
2.14563e-17
0.0390821
-4.88971e-17
1.47724e-17
0.0400059
2.86368e-17
0.0400059
7.8225e-18
0.0400059
-5.8222e-17
2.16376e-17
0.0409345
3.97717e-17
0.0409345
-2.30978e-18
0.0409345
-6.685e-17
2.29814e-17
0.0418669
4.50229e-17
0.0418669
-2.19359e-17
0.0418669
-6.67517e-17
3.89161e-17
0.042802
5.22238e-17
0.042802
-2.38857e-17
0.042802
-6.90344e-17
3.94965e-17
0.0437387
4.80551e-17
0.0437387
-3.86846e-17
0.0437387
-6.98266e-17
4.80927e-17
0.0446758
4.85832e-17
0.0446758
-4.03114e-17
0.0446758
-6.85983e-17
4.79769e-17
0.0456119
5.5479e-17
0.0456119
-4.71942e-17
0.0456119
-6.62002e-17
5.14456e-17
0.0465456
4.57304e-17
0.0465456
-3.69371e-17
0.0465456
-4.76185e-17
3.11253e-17
0.0474755
4.02177e-17
0.0474755
-3.42619e-17
0.0474755
-4.23804e-17
3.57723e-17
0.0483998
3.34757e-17
0.0483998
-2.42579e-17
0.0483998
-3.26764e-17
2.70937e-17
0.0493169
1.42904e-17
0.0493169
-1.2419e-17
0.0493169
-3.22635e-17
2.49346e-17
0.0502249
6.53564e-18
0.0502249
-9.86999e-19
0.0502249
-2.02111e-17
1.48669e-17
0.0511218
9.70111e-19
0.0511218
-1.69738e-18
0.0511218
-1.58867e-17
1.0971e-17
0.0520055
-2.41398e-18
0.0520055
-1.16776e-18
0.0520055
-4.605e-18
6.67099e-18
0.0528737
5.54584e-18
0.0528737
-2.24547e-18
0.0528737
-3.61149e-18
-1.35589e-18
0.0537241
-3.97558e-18
0.0537241
-9.56929e-18
0.0537241
1.54826e-18
5.46366e-18
0.054554
-8.73432e-18
0.054554
-1.50013e-17
0.054554
1.03646e-17
6.60849e-18
0.0553608
0.0553608
0.0553608
)
;

boundaryField
{
    inlet
    {
        type            cyclic;
        value           nonuniform List<scalar> 
100
(
-0.0553608
-0.054554
-0.0537241
-0.0528737
-0.0520055
-0.0511218
-0.0502249
-0.0493169
-0.0483998
-0.0474755
-0.0465456
-0.0456119
-0.0446758
-0.0437387
-0.042802
-0.0418669
-0.0409345
-0.0400059
-0.0390821
-0.0381639
-0.0372522
-0.0363478
-0.0354514
-0.0345635
-0.0336849
-0.0328159
-0.0319573
-0.0311092
-0.0302723
-0.0294467
-0.0286329
-0.0278311
-0.0270416
-0.0262645
-0.0255001
-0.0247484
-0.0240098
-0.0232841
-0.0225715
-0.0218721
-0.0211859
-0.0205129
-0.0198532
-0.0192066
-0.0185732
-0.0179529
-0.0173456
-0.0167513
-0.0161699
-0.0156013
-0.0150454
-0.014502
-0.0139711
-0.0134525
-0.0129461
-0.0124518
-0.0119693
-0.0114986
-0.0110394
-0.0105917
-0.0101552
-0.00972985
-0.00931538
-0.00891165
-0.00851849
-0.00813572
-0.00776317
-0.00740066
-0.007048
-0.00670502
-0.00637155
-0.00604739
-0.00573238
-0.00542633
-0.00512906
-0.00484041
-0.00456019
-0.00428823
-0.00402436
-0.00376841
-0.0035202
-0.00327957
-0.00304635
-0.00282037
-0.00260148
-0.00238951
-0.0021843
-0.00198571
-0.00179356
-0.00160771
-0.00142801
-0.00125432
-0.00108648
-0.000924356
-0.000767803
-0.000616684
-0.000470862
-0.000330204
-0.000194578
-6.38551e-05
)
;
    }
    outlet
    {
        type            cyclic;
        value           nonuniform List<scalar> 
100
(
0.0553608
0.054554
0.0537241
0.0528737
0.0520055
0.0511218
0.0502249
0.0493169
0.0483998
0.0474755
0.0465456
0.0456119
0.0446758
0.0437387
0.042802
0.0418669
0.0409345
0.0400059
0.0390821
0.0381639
0.0372522
0.0363478
0.0354514
0.0345635
0.0336849
0.0328159
0.0319573
0.0311092
0.0302723
0.0294467
0.0286329
0.0278311
0.0270416
0.0262645
0.0255001
0.0247484
0.0240098
0.0232841
0.0225715
0.0218721
0.0211859
0.0205129
0.0198532
0.0192066
0.0185732
0.0179529
0.0173456
0.0167513
0.0161699
0.0156013
0.0150454
0.014502
0.0139711
0.0134525
0.0129461
0.0124518
0.0119693
0.0114986
0.0110394
0.0105917
0.0101552
0.00972985
0.00931538
0.00891165
0.00851849
0.00813572
0.00776317
0.00740066
0.007048
0.00670502
0.00637155
0.00604739
0.00573238
0.00542633
0.00512906
0.00484041
0.00456019
0.00428823
0.00402436
0.00376841
0.0035202
0.00327957
0.00304635
0.00282037
0.00260148
0.00238951
0.0021843
0.00198571
0.00179356
0.00160771
0.00142801
0.00125432
0.00108648
0.000924356
0.000767803
0.000616684
0.000470862
0.000330204
0.000194578
6.38551e-05
)
;
    }
    fixedWalls-bottom
    {
        type            calculated;
        value           uniform 0;
    }
    fixedWalls-top
    {
        type            symmetry;
        value           uniform 0;
    }
    frontAndBack
    {
        type            empty;
        value           nonuniform List<scalar> 0();
    }
}


// ************************************************************************* //
