/*--------------------------------*- C++ -*----------------------------------*\
  =========                 |
  \\      /  F ield         | OpenFOAM: The Open Source CFD Toolbox
   \\    /   O peration     | Website:  https://openfoam.org
    \\  /    A nd           | Version:  10
     \\/     M anipulation  |
\*---------------------------------------------------------------------------*/
FoamFile
{
    format      ascii;
    class       volSymmTensorField;
    location    "10000";
    object      R;
}
// * * * * * * * * * * * * * * * * * * * * * * * * * * * * * * * * * * * * * //

dimensions      [0 2 -2 0 0 0 0];

internalField   nonuniform List<symmTensor> 
400
(
(1.4803e-16 -1.07767e-20 -0 1.4803e-16 -0 1.4803e-16)
(1.4803e-16 -1.07767e-20 -0 1.4803e-16 -0 1.4803e-16)
(1.4803e-16 -1.07767e-20 -0 1.4803e-16 -0 1.4803e-16)
(1.4803e-16 -1.07767e-20 -0 1.4803e-16 -0 1.4803e-16)
(1.4803e-16 -6.54107e-20 -0 1.4803e-16 -0 1.4803e-16)
(1.4803e-16 -6.54107e-20 -0 1.4803e-16 -0 1.4803e-16)
(1.4803e-16 -6.54107e-20 -0 1.4803e-16 -0 1.4803e-16)
(1.4803e-16 -6.54107e-20 -0 1.4803e-16 -0 1.4803e-16)
(1.4803e-16 -1.97407e-19 -0 1.4803e-16 -0 1.4803e-16)
(1.4803e-16 -1.97407e-19 -0 1.4803e-16 -0 1.4803e-16)
(1.4803e-16 -1.97407e-19 -0 1.4803e-16 -0 1.4803e-16)
(1.4803e-16 -1.97407e-19 -0 1.4803e-16 -0 1.4803e-16)
(1.4803e-16 -4.22234e-19 -0 1.4803e-16 -0 1.4803e-16)
(1.4803e-16 -4.22235e-19 -0 1.4803e-16 -0 1.4803e-16)
(1.4803e-16 -4.22235e-19 -0 1.4803e-16 -0 1.4803e-16)
(1.4803e-16 -4.22236e-19 -0 1.4803e-16 -0 1.4803e-16)
(1.4803e-16 -7.44343e-19 -0 1.4803e-16 -0 1.4803e-16)
(1.4803e-16 -7.44351e-19 -0 1.4803e-16 -0 1.4803e-16)
(1.4803e-16 -7.44351e-19 -0 1.4803e-16 -0 1.4803e-16)
(1.4803e-16 -7.44357e-19 -0 1.4803e-16 -0 1.4803e-16)
(1.4803e-16 -1.16101e-18 -0 1.4803e-16 -0 1.4803e-16)
(1.4803e-16 -1.16104e-18 -0 1.4803e-16 -0 1.4803e-16)
(1.4803e-16 -1.16104e-18 -0 1.4803e-16 -0 1.4803e-16)
(1.4803e-16 -1.16106e-18 -0 1.4803e-16 -0 1.4803e-16)
(1.4803e-16 -1.66774e-18 -0 1.4803e-16 -0 1.4803e-16)
(1.4803e-16 -1.66782e-18 -0 1.4803e-16 -0 1.4803e-16)
(1.4803e-16 -1.66782e-18 -0 1.4803e-16 -0 1.4803e-16)
(1.4803e-16 -1.66786e-18 -0 1.4803e-16 -0 1.4803e-16)
(1.4803e-16 -2.26442e-18 -0 1.4803e-16 -0 1.4803e-16)
(1.4803e-16 -2.26453e-18 -0 1.4803e-16 -0 1.4803e-16)
(1.4803e-16 -2.26453e-18 -0 1.4803e-16 -0 1.4803e-16)
(1.4803e-16 -2.2646e-18 -0 1.4803e-16 -0 1.4803e-16)
(1.4803e-16 -2.95694e-18 -0 1.4803e-16 -0 1.4803e-16)
(1.4803e-16 -2.95708e-18 -0 1.4803e-16 -0 1.4803e-16)
(1.4803e-16 -2.95706e-18 -0 1.4803e-16 -0 1.4803e-16)
(1.4803e-16 -2.95714e-18 -0 1.4803e-16 -0 1.4803e-16)
(1.4803e-16 -3.75119e-18 -0 1.4803e-16 -0 1.4803e-16)
(1.4803e-16 -3.75135e-18 -0 1.4803e-16 -0 1.4803e-16)
(1.4803e-16 -3.75132e-18 -0 1.4803e-16 -0 1.4803e-16)
(1.4803e-16 -3.7514e-18 -0 1.4803e-16 -0 1.4803e-16)
(1.4803e-16 -4.64976e-18 -0 1.4803e-16 -0 1.4803e-16)
(1.4803e-16 -4.64994e-18 -0 1.4803e-16 -0 1.4803e-16)
(1.4803e-16 -4.6499e-18 -0 1.4803e-16 -0 1.4803e-16)
(1.4803e-16 -4.64998e-18 -0 1.4803e-16 -0 1.4803e-16)
(1.4803e-16 -5.65374e-18 -0 1.4803e-16 -0 1.4803e-16)
(1.4803e-16 -5.65396e-18 -0 1.4803e-16 -0 1.4803e-16)
(1.4803e-16 -5.6539e-18 -0 1.4803e-16 -0 1.4803e-16)
(1.4803e-16 -5.65399e-18 -0 1.4803e-16 -0 1.4803e-16)
(1.4803e-16 -6.76321e-18 -0 1.4803e-16 -0 1.4803e-16)
(1.4803e-16 -6.76349e-18 -0 1.4803e-16 -0 1.4803e-16)
(1.4803e-16 -6.76343e-18 -0 1.4803e-16 -0 1.4803e-16)
(1.4803e-16 -6.76351e-18 -0 1.4803e-16 -0 1.4803e-16)
(1.4803e-16 -7.97713e-18 -0 1.4803e-16 -0 1.4803e-16)
(1.4803e-16 -7.97751e-18 -0 1.4803e-16 -0 1.4803e-16)
(1.4803e-16 -7.97746e-18 -0 1.4803e-16 -0 1.4803e-16)
(1.4803e-16 -7.97751e-18 -0 1.4803e-16 -0 1.4803e-16)
(1.4803e-16 -9.29319e-18 -0 1.4803e-16 -0 1.4803e-16)
(1.4803e-16 -9.29371e-18 -0 1.4803e-16 -0 1.4803e-16)
(1.4803e-16 -9.29369e-18 -0 1.4803e-16 -0 1.4803e-16)
(1.4803e-16 -9.29371e-18 -0 1.4803e-16 -0 1.4803e-16)
(1.4803e-16 -1.07077e-17 -0 1.4803e-16 -0 1.4803e-16)
(1.4803e-16 -1.07084e-17 -0 1.4803e-16 -0 1.4803e-16)
(1.4803e-16 -1.07084e-17 -0 1.4803e-16 -0 1.4803e-16)
(1.4803e-16 -1.07084e-17 -0 1.4803e-16 -0 1.4803e-16)
(1.4803e-16 -1.22153e-17 -0 1.4803e-16 -0 1.4803e-16)
(1.4803e-16 -1.22164e-17 -0 1.4803e-16 -0 1.4803e-16)
(1.4803e-16 -1.22165e-17 -0 1.4803e-16 -0 1.4803e-16)
(1.4803e-16 -1.22164e-17 -0 1.4803e-16 -0 1.4803e-16)
(1.4803e-16 -1.38094e-17 -0 1.4803e-16 -0 1.4803e-16)
(1.4803e-16 -1.3811e-17 -0 1.4803e-16 -0 1.4803e-16)
(1.4803e-16 -1.38112e-17 -0 1.4803e-16 -0 1.4803e-16)
(1.4803e-16 -1.3811e-17 -0 1.4803e-16 -0 1.4803e-16)
(1.4803e-16 -1.54815e-17 -0 1.4803e-16 -0 1.4803e-16)
(1.4803e-16 -1.54837e-17 -0 1.4803e-16 -0 1.4803e-16)
(1.4803e-16 -1.54842e-17 -0 1.4803e-16 -0 1.4803e-16)
(1.4803e-16 -1.54839e-17 -0 1.4803e-16 -0 1.4803e-16)
(1.4803e-16 -1.72219e-17 -0 1.4803e-16 -0 1.4803e-16)
(1.4803e-16 -1.7225e-17 -0 1.4803e-16 -0 1.4803e-16)
(1.4803e-16 -1.72258e-17 -0 1.4803e-16 -0 1.4803e-16)
(1.4803e-16 -1.72253e-17 -0 1.4803e-16 -0 1.4803e-16)
(1.4803e-16 -1.90196e-17 -0 1.4803e-16 -0 1.4803e-16)
(1.4803e-16 -1.90239e-17 -0 1.4803e-16 -0 1.4803e-16)
(1.4803e-16 -1.90251e-17 -0 1.4803e-16 -0 1.4803e-16)
(1.4803e-16 -1.90243e-17 -0 1.4803e-16 -0 1.4803e-16)
(1.4803e-16 -2.08627e-17 -0 1.4803e-16 -0 1.4803e-16)
(1.4803e-16 -2.08683e-17 -0 1.4803e-16 -0 1.4803e-16)
(1.4803e-16 -2.08701e-17 -0 1.4803e-16 -0 1.4803e-16)
(1.4803e-16 -2.08691e-17 -0 1.4803e-16 -0 1.4803e-16)
(1.4803e-16 -2.27385e-17 -0 1.4803e-16 -0 1.4803e-16)
(1.4803e-16 -2.27458e-17 -0 1.4803e-16 -0 1.4803e-16)
(1.4803e-16 -2.27484e-17 -0 1.4803e-16 -0 1.4803e-16)
(1.4803e-16 -2.27471e-17 -0 1.4803e-16 -0 1.4803e-16)
(1.4803e-16 -2.46343e-17 -0 1.4803e-16 -0 1.4803e-16)
(1.4803e-16 -2.46436e-17 -0 1.4803e-16 -0 1.4803e-16)
(1.4803e-16 -2.46472e-17 -0 1.4803e-16 -0 1.4803e-16)
(1.4803e-16 -2.46455e-17 -0 1.4803e-16 -0 1.4803e-16)
(1.4803e-16 -2.65374e-17 -0 1.4803e-16 -0 1.4803e-16)
(1.4803e-16 -2.6549e-17 -0 1.4803e-16 -0 1.4803e-16)
(1.4803e-16 -2.65538e-17 -0 1.4803e-16 -0 1.4803e-16)
(1.4803e-16 -2.65518e-17 -0 1.4803e-16 -0 1.4803e-16)
(1.4803e-16 -2.84356e-17 -0 1.4803e-16 -0 1.4803e-16)
(1.4803e-16 -2.84498e-17 -0 1.4803e-16 -0 1.4803e-16)
(1.4803e-16 -2.84561e-17 -0 1.4803e-16 -0 1.4803e-16)
(1.4803e-16 -2.84538e-17 -0 1.4803e-16 -0 1.4803e-16)
(1.4803e-16 -3.03175e-17 -0 1.4803e-16 -0 1.4803e-16)
(1.4803e-16 -3.03343e-17 -0 1.4803e-16 -0 1.4803e-16)
(1.4803e-16 -3.03426e-17 -0 1.4803e-16 -0 1.4803e-16)
(1.4803e-16 -3.03399e-17 -0 1.4803e-16 -0 1.4803e-16)
(1.4803e-16 -3.21725e-17 -0 1.4803e-16 -0 1.4803e-16)
(1.4803e-16 -3.21921e-17 -0 1.4803e-16 -0 1.4803e-16)
(1.4803e-16 -3.22027e-17 -0 1.4803e-16 -0 1.4803e-16)
(1.4803e-16 -3.21997e-17 -0 1.4803e-16 -0 1.4803e-16)
(1.4803e-16 -3.39912e-17 -0 1.4803e-16 -0 1.4803e-16)
(1.4803e-16 -3.40135e-17 -0 1.4803e-16 -0 1.4803e-16)
(1.4803e-16 -3.40268e-17 -0 1.4803e-16 -0 1.4803e-16)
(1.4803e-16 -3.40236e-17 -0 1.4803e-16 -0 1.4803e-16)
(1.4803e-16 -3.57651e-17 -0 1.4803e-16 -0 1.4803e-16)
(1.4803e-16 -3.57899e-17 -0 1.4803e-16 -0 1.4803e-16)
(1.4803e-16 -3.58064e-17 -0 1.4803e-16 -0 1.4803e-16)
(1.4803e-16 -3.58032e-17 -0 1.4803e-16 -0 1.4803e-16)
(1.4803e-16 -3.74868e-17 -0 1.4803e-16 -0 1.4803e-16)
(1.4803e-16 -3.75136e-17 -0 1.4803e-16 -0 1.4803e-16)
(1.4803e-16 -3.75338e-17 -0 1.4803e-16 -0 1.4803e-16)
(1.4803e-16 -3.75309e-17 -0 1.4803e-16 -0 1.4803e-16)
(1.4803e-16 -3.91497e-17 -0 1.4803e-16 -0 1.4803e-16)
(1.4803e-16 -3.91781e-17 -0 1.4803e-16 -0 1.4803e-16)
(1.4803e-16 -3.92024e-17 -0 1.4803e-16 -0 1.4803e-16)
(1.4803e-16 -3.92003e-17 -0 1.4803e-16 -0 1.4803e-16)
(1.4803e-16 -4.07481e-17 -0 1.4803e-16 -0 1.4803e-16)
(1.4803e-16 -4.07773e-17 -0 1.4803e-16 -0 1.4803e-16)
(1.4803e-16 -4.08062e-17 -0 1.4803e-16 -0 1.4803e-16)
(1.4803e-16 -4.08057e-17 -0 1.4803e-16 -0 1.4803e-16)
(1.4803e-16 -4.22769e-17 -0 1.4803e-16 -0 1.4803e-16)
(1.4803e-16 -4.23061e-17 -0 1.4803e-16 -0 1.4803e-16)
(1.4803e-16 -4.23395e-17 -0 1.4803e-16 -0 1.4803e-16)
(1.4803e-16 -4.23421e-17 -0 1.4803e-16 -0 1.4803e-16)
(1.4803e-16 -4.37313e-17 -0 1.4803e-16 -0 1.4803e-16)
(1.4803e-16 -4.376e-17 -0 1.4803e-16 -0 1.4803e-16)
(1.4803e-16 -4.37979e-17 -0 1.4803e-16 -0 1.4803e-16)
(1.4803e-16 -4.38043e-17 -0 1.4803e-16 -0 1.4803e-16)
(1.4803e-16 -4.51071e-17 -0 1.4803e-16 -0 1.4803e-16)
(1.4803e-16 -4.51346e-17 -0 1.4803e-16 -0 1.4803e-16)
(1.4803e-16 -4.51767e-17 -0 1.4803e-16 -0 1.4803e-16)
(1.4803e-16 -4.51881e-17 -0 1.4803e-16 -0 1.4803e-16)
(1.4803e-16 -4.64004e-17 -0 1.4803e-16 -0 1.4803e-16)
(1.4803e-16 -4.64263e-17 -0 1.4803e-16 -0 1.4803e-16)
(1.4803e-16 -4.64718e-17 -0 1.4803e-16 -0 1.4803e-16)
(1.4803e-16 -4.64896e-17 -0 1.4803e-16 -0 1.4803e-16)
(1.4803e-16 -4.76074e-17 -0 1.4803e-16 -0 1.4803e-16)
(1.4803e-16 -4.76315e-17 -0 1.4803e-16 -0 1.4803e-16)
(1.4803e-16 -4.76793e-17 -0 1.4803e-16 -0 1.4803e-16)
(1.4803e-16 -4.77051e-17 -0 1.4803e-16 -0 1.4803e-16)
(1.4803e-16 -4.87247e-17 -0 1.4803e-16 -0 1.4803e-16)
(1.4803e-16 -4.87473e-17 -0 1.4803e-16 -0 1.4803e-16)
(1.4803e-16 -4.8796e-17 -0 1.4803e-16 -0 1.4803e-16)
(1.4803e-16 -4.88312e-17 -0 1.4803e-16 -0 1.4803e-16)
(1.4803e-16 -4.97495e-17 -0 1.4803e-16 -0 1.4803e-16)
(1.4803e-16 -4.97705e-17 -0 1.4803e-16 -0 1.4803e-16)
(1.4803e-16 -4.98189e-17 -0 1.4803e-16 -0 1.4803e-16)
(1.4803e-16 -4.9865e-17 -0 1.4803e-16 -0 1.4803e-16)
(1.4803e-16 -5.06794e-17 -0 1.4803e-16 -0 1.4803e-16)
(1.4803e-16 -5.06987e-17 -0 1.4803e-16 -0 1.4803e-16)
(1.4803e-16 -5.07461e-17 -0 1.4803e-16 -0 1.4803e-16)
(1.4803e-16 -5.08042e-17 -0 1.4803e-16 -0 1.4803e-16)
(1.4803e-16 -5.15124e-17 -0 1.4803e-16 -0 1.4803e-16)
(1.4803e-16 -5.15303e-17 -0 1.4803e-16 -0 1.4803e-16)
(1.4803e-16 -5.1576e-17 -0 1.4803e-16 -0 1.4803e-16)
(1.4803e-16 -5.16468e-17 -0 1.4803e-16 -0 1.4803e-16)
(1.4803e-16 -5.22478e-17 -0 1.4803e-16 -0 1.4803e-16)
(1.4803e-16 -5.22643e-17 -0 1.4803e-16 -0 1.4803e-16)
(1.4803e-16 -5.23082e-17 -0 1.4803e-16 -0 1.4803e-16)
(1.4803e-16 -5.2392e-17 -0 1.4803e-16 -0 1.4803e-16)
(1.4803e-16 -5.28855e-17 -0 1.4803e-16 -0 1.4803e-16)
(1.4803e-16 -5.29007e-17 -0 1.4803e-16 -0 1.4803e-16)
(1.4803e-16 -5.29436e-17 -0 1.4803e-16 -0 1.4803e-16)
(1.4803e-16 -5.30395e-17 -0 1.4803e-16 -0 1.4803e-16)
(1.4803e-16 -5.34265e-17 -0 1.4803e-16 -0 1.4803e-16)
(1.4803e-16 -5.34408e-17 -0 1.4803e-16 -0 1.4803e-16)
(1.4803e-16 -5.34834e-17 -0 1.4803e-16 -0 1.4803e-16)
(1.4803e-16 -5.35903e-17 -0 1.4803e-16 -0 1.4803e-16)
(1.4803e-16 -5.38729e-17 -0 1.4803e-16 -0 1.4803e-16)
(1.4803e-16 -5.38865e-17 -0 1.4803e-16 -0 1.4803e-16)
(1.4803e-16 -5.39292e-17 -0 1.4803e-16 -0 1.4803e-16)
(1.4803e-16 -5.40469e-17 -0 1.4803e-16 -0 1.4803e-16)
(1.4803e-16 -5.42282e-17 -0 1.4803e-16 -0 1.4803e-16)
(1.4803e-16 -5.42413e-17 -0 1.4803e-16 -0 1.4803e-16)
(1.4803e-16 -5.42845e-17 -0 1.4803e-16 -0 1.4803e-16)
(1.4803e-16 -5.44126e-17 -0 1.4803e-16 -0 1.4803e-16)
(1.4803e-16 -5.44967e-17 -0 1.4803e-16 -0 1.4803e-16)
(1.4803e-16 -5.45095e-17 -0 1.4803e-16 -0 1.4803e-16)
(1.4803e-16 -5.45534e-17 -0 1.4803e-16 -0 1.4803e-16)
(1.4803e-16 -5.4692e-17 -0 1.4803e-16 -0 1.4803e-16)
(1.4803e-16 -5.46841e-17 -0 1.4803e-16 -0 1.4803e-16)
(1.4803e-16 -5.46967e-17 -0 1.4803e-16 -0 1.4803e-16)
(1.4803e-16 -5.47417e-17 -0 1.4803e-16 -0 1.4803e-16)
(1.4803e-16 -5.48907e-17 -0 1.4803e-16 -0 1.4803e-16)
(1.4803e-16 -5.47971e-17 -0 1.4803e-16 -0 1.4803e-16)
(1.4803e-16 -5.48096e-17 -0 1.4803e-16 -0 1.4803e-16)
(1.4803e-16 -5.48559e-17 -0 1.4803e-16 -0 1.4803e-16)
(1.4803e-16 -5.50152e-17 -0 1.4803e-16 -0 1.4803e-16)
(1.4803e-16 -5.48432e-17 -0 1.4803e-16 -0 1.4803e-16)
(1.4803e-16 -5.48557e-17 -0 1.4803e-16 -0 1.4803e-16)
(1.4803e-16 -5.49036e-17 -0 1.4803e-16 -0 1.4803e-16)
(1.4803e-16 -5.50733e-17 -0 1.4803e-16 -0 1.4803e-16)
(1.4803e-16 -5.48313e-17 -0 1.4803e-16 -0 1.4803e-16)
(1.4803e-16 -5.48438e-17 -0 1.4803e-16 -0 1.4803e-16)
(1.4803e-16 -5.48935e-17 -0 1.4803e-16 -0 1.4803e-16)
(1.4803e-16 -5.50736e-17 -0 1.4803e-16 -0 1.4803e-16)
(1.4803e-16 -5.47714e-17 -0 1.4803e-16 -0 1.4803e-16)
(1.4803e-16 -5.4784e-17 -0 1.4803e-16 -0 1.4803e-16)
(1.4803e-16 -5.48356e-17 -0 1.4803e-16 -0 1.4803e-16)
(1.4803e-16 -5.50262e-17 -0 1.4803e-16 -0 1.4803e-16)
(1.4803e-16 -5.46751e-17 -0 1.4803e-16 -0 1.4803e-16)
(1.4803e-16 -5.46883e-17 -0 1.4803e-16 -0 1.4803e-16)
(1.4803e-16 -5.47417e-17 -0 1.4803e-16 -0 1.4803e-16)
(1.4803e-16 -5.49429e-17 -0 1.4803e-16 -0 1.4803e-16)
(1.4803e-16 -5.45551e-17 -0 1.4803e-16 -0 1.4803e-16)
(1.4803e-16 -5.45695e-17 -0 1.4803e-16 -0 1.4803e-16)
(1.4803e-16 -5.46244e-17 -0 1.4803e-16 -0 1.4803e-16)
(1.4803e-16 -5.48366e-17 -0 1.4803e-16 -0 1.4803e-16)
(1.4803e-16 -5.44232e-17 -0 1.4803e-16 -0 1.4803e-16)
(1.4803e-16 -5.44393e-17 -0 1.4803e-16 -0 1.4803e-16)
(1.4803e-16 -5.44954e-17 -0 1.4803e-16 -0 1.4803e-16)
(1.4803e-16 -5.47189e-17 -0 1.4803e-16 -0 1.4803e-16)
(1.4803e-16 -5.42877e-17 -0 1.4803e-16 -0 1.4803e-16)
(1.4803e-16 -5.43061e-17 -0 1.4803e-16 -0 1.4803e-16)
(1.4803e-16 -5.43626e-17 -0 1.4803e-16 -0 1.4803e-16)
(1.4803e-16 -5.45981e-17 -0 1.4803e-16 -0 1.4803e-16)
(1.4803e-16 -5.41541e-17 -0 1.4803e-16 -0 1.4803e-16)
(1.4803e-16 -5.41753e-17 -0 1.4803e-16 -0 1.4803e-16)
(1.4803e-16 -5.4231e-17 -0 1.4803e-16 -0 1.4803e-16)
(1.4803e-16 -5.44795e-17 -0 1.4803e-16 -0 1.4803e-16)
(1.4803e-16 -5.40251e-17 -0 1.4803e-16 -0 1.4803e-16)
(1.4803e-16 -5.40489e-17 -0 1.4803e-16 -0 1.4803e-16)
(1.4803e-16 -5.41032e-17 -0 1.4803e-16 -0 1.4803e-16)
(1.4803e-16 -5.43654e-17 -0 1.4803e-16 -0 1.4803e-16)
(1.4803e-16 -5.38997e-17 -0 1.4803e-16 -0 1.4803e-16)
(1.4803e-16 -5.39241e-17 -0 1.4803e-16 -0 1.4803e-16)
(1.4803e-16 -5.39783e-17 -0 1.4803e-16 -0 1.4803e-16)
(1.4803e-16 -5.42542e-17 -0 1.4803e-16 -0 1.4803e-16)
(1.4803e-16 -5.3773e-17 -0 1.4803e-16 -0 1.4803e-16)
(1.4803e-16 -5.3796e-17 -0 1.4803e-16 -0 1.4803e-16)
(1.4803e-16 -5.38526e-17 -0 1.4803e-16 -0 1.4803e-16)
(1.4803e-16 -5.41404e-17 -0 1.4803e-16 -0 1.4803e-16)
(1.4803e-16 -5.36374e-17 -0 1.4803e-16 -0 1.4803e-16)
(1.4803e-16 -5.36593e-17 -0 1.4803e-16 -0 1.4803e-16)
(1.4803e-16 -5.37193e-17 -0 1.4803e-16 -0 1.4803e-16)
(1.4803e-16 -5.40163e-17 -0 1.4803e-16 -0 1.4803e-16)
(1.4803e-16 -5.34849e-17 -0 1.4803e-16 -0 1.4803e-16)
(1.4803e-16 -5.35051e-17 -0 1.4803e-16 -0 1.4803e-16)
(1.4803e-16 -5.35703e-17 -0 1.4803e-16 -0 1.4803e-16)
(1.4803e-16 -5.38743e-17 -0 1.4803e-16 -0 1.4803e-16)
(1.4803e-16 -5.3308e-17 -0 1.4803e-16 -0 1.4803e-16)
(1.4803e-16 -5.33232e-17 -0 1.4803e-16 -0 1.4803e-16)
(1.4803e-16 -5.33988e-17 -0 1.4803e-16 -0 1.4803e-16)
(1.4803e-16 -5.37077e-17 -0 1.4803e-16 -0 1.4803e-16)
(1.4803e-16 -5.31004e-17 -0 1.4803e-16 -0 1.4803e-16)
(1.4803e-16 -5.31055e-17 -0 1.4803e-16 -0 1.4803e-16)
(1.4803e-16 -5.31995e-17 -0 1.4803e-16 -0 1.4803e-16)
(1.4803e-16 -5.35112e-17 -0 1.4803e-16 -0 1.4803e-16)
(1.4803e-16 -5.28572e-17 -0 1.4803e-16 -0 1.4803e-16)
(1.4803e-16 -5.28501e-17 -0 1.4803e-16 -0 1.4803e-16)
(1.4803e-16 -5.29672e-17 -0 1.4803e-16 -0 1.4803e-16)
(1.4803e-16 -5.32811e-17 -0 1.4803e-16 -0 1.4803e-16)
(1.4803e-16 -5.25748e-17 -0 1.4803e-16 -0 1.4803e-16)
(1.4803e-16 -5.25704e-17 -0 1.4803e-16 -0 1.4803e-16)
(1.4803e-16 -5.26927e-17 -0 1.4803e-16 -0 1.4803e-16)
(1.4803e-16 -5.30153e-17 -0 1.4803e-16 -0 1.4803e-16)
(1.4803e-16 -5.22527e-17 -0 1.4803e-16 -0 1.4803e-16)
(1.4803e-16 -5.22536e-17 -0 1.4803e-16 -0 1.4803e-16)
(1.4803e-16 -5.2378e-17 -0 1.4803e-16 -0 1.4803e-16)
(1.4803e-16 -5.27119e-17 -0 1.4803e-16 -0 1.4803e-16)
(1.4803e-16 -5.19008e-17 -0 1.4803e-16 -0 1.4803e-16)
(1.4803e-16 -5.18974e-17 -0 1.4803e-16 -0 1.4803e-16)
(1.4803e-16 -5.20225e-17 -0 1.4803e-16 -0 1.4803e-16)
(1.4803e-16 -5.23697e-17 -0 1.4803e-16 -0 1.4803e-16)
(1.4803e-16 -5.15159e-17 -0 1.4803e-16 -0 1.4803e-16)
(1.4803e-16 -5.15043e-17 -0 1.4803e-16 -0 1.4803e-16)
(1.4803e-16 -5.16255e-17 -0 1.4803e-16 -0 1.4803e-16)
(1.4803e-16 -5.19868e-17 -0 1.4803e-16 -0 1.4803e-16)
(1.4803e-16 -5.10863e-17 -0 1.4803e-16 -0 1.4803e-16)
(1.4803e-16 -5.10667e-17 -0 1.4803e-16 -0 1.4803e-16)
(1.4803e-16 -5.11922e-17 -0 1.4803e-16 -0 1.4803e-16)
(1.4803e-16 -5.15611e-17 -0 1.4803e-16 -0 1.4803e-16)
(1.4803e-16 -5.06136e-17 -0 1.4803e-16 -0 1.4803e-16)
(1.4803e-16 -5.05882e-17 -0 1.4803e-16 -0 1.4803e-16)
(1.4803e-16 -5.07175e-17 -0 1.4803e-16 -0 1.4803e-16)
(1.4803e-16 -5.1092e-17 -0 1.4803e-16 -0 1.4803e-16)
(1.4803e-16 -5.00976e-17 -0 1.4803e-16 -0 1.4803e-16)
(1.4803e-16 -5.00685e-17 -0 1.4803e-16 -0 1.4803e-16)
(1.4803e-16 -5.01992e-17 -0 1.4803e-16 -0 1.4803e-16)
(1.4803e-16 -5.05783e-17 -0 1.4803e-16 -0 1.4803e-16)
(1.4803e-16 -4.95367e-17 -0 1.4803e-16 -0 1.4803e-16)
(1.4803e-16 -4.9505e-17 -0 1.4803e-16 -0 1.4803e-16)
(1.4803e-16 -4.96357e-17 -0 1.4803e-16 -0 1.4803e-16)
(1.4803e-16 -5.00182e-17 -0 1.4803e-16 -0 1.4803e-16)
(1.4803e-16 -4.89283e-17 -0 1.4803e-16 -0 1.4803e-16)
(1.4803e-16 -4.88931e-17 -0 1.4803e-16 -0 1.4803e-16)
(1.4803e-16 -4.90255e-17 -0 1.4803e-16 -0 1.4803e-16)
(1.4803e-16 -4.94095e-17 -0 1.4803e-16 -0 1.4803e-16)
(1.4803e-16 -4.82693e-17 -0 1.4803e-16 -0 1.4803e-16)
(1.4803e-16 -4.82282e-17 -0 1.4803e-16 -0 1.4803e-16)
(1.4803e-16 -4.83664e-17 -0 1.4803e-16 -0 1.4803e-16)
(1.4803e-16 -4.87497e-17 -0 1.4803e-16 -0 1.4803e-16)
(1.4803e-16 -4.75564e-17 -0 1.4803e-16 -0 1.4803e-16)
(1.4803e-16 -4.75076e-17 -0 1.4803e-16 -0 1.4803e-16)
(1.4803e-16 -4.76549e-17 -0 1.4803e-16 -0 1.4803e-16)
(1.4803e-16 -4.80354e-17 -0 1.4803e-16 -0 1.4803e-16)
(1.4803e-16 -4.67857e-17 -0 1.4803e-16 -0 1.4803e-16)
(1.4803e-16 -4.67324e-17 -0 1.4803e-16 -0 1.4803e-16)
(1.4803e-16 -4.68852e-17 -0 1.4803e-16 -0 1.4803e-16)
(1.4803e-16 -4.72631e-17 -0 1.4803e-16 -0 1.4803e-16)
(1.4803e-16 -4.59528e-17 -0 1.4803e-16 -0 1.4803e-16)
(1.4803e-16 -4.59048e-17 -0 1.4803e-16 -0 1.4803e-16)
(1.4803e-16 -4.60505e-17 -0 1.4803e-16 -0 1.4803e-16)
(1.4803e-16 -4.64286e-17 -0 1.4803e-16 -0 1.4803e-16)
(1.4803e-16 -4.50518e-17 -0 1.4803e-16 -0 1.4803e-16)
(1.4803e-16 -4.50212e-17 -0 1.4803e-16 -0 1.4803e-16)
(1.4803e-16 -4.51445e-17 -0 1.4803e-16 -0 1.4803e-16)
(1.4803e-16 -4.55273e-17 -0 1.4803e-16 -0 1.4803e-16)
(1.4803e-16 -4.40736e-17 -0 1.4803e-16 -0 1.4803e-16)
(1.4803e-16 -4.4081e-17 -0 1.4803e-16 -0 1.4803e-16)
(1.4803e-16 -4.41591e-17 -0 1.4803e-16 -0 1.4803e-16)
(1.4803e-16 -4.45544e-17 -0 1.4803e-16 -0 1.4803e-16)
(1.4803e-16 -4.30036e-17 -0 1.4803e-16 -0 1.4803e-16)
(1.4803e-16 -4.30667e-17 -0 1.4803e-16 -0 1.4803e-16)
(1.4803e-16 -4.30889e-17 -0 1.4803e-16 -0 1.4803e-16)
(1.4803e-16 -4.35045e-17 -0 1.4803e-16 -0 1.4803e-16)
(1.4803e-16 -4.18158e-17 -0 1.4803e-16 -0 1.4803e-16)
(1.4803e-16 -4.19485e-17 -0 1.4803e-16 -0 1.4803e-16)
(1.4803e-16 -4.19336e-17 -0 1.4803e-16 -0 1.4803e-16)
(1.4803e-16 -4.23701e-17 -0 1.4803e-16 -0 1.4803e-16)
(1.4803e-16 -4.05793e-17 -0 1.4803e-16 -0 1.4803e-16)
(1.4803e-16 -4.07192e-17 -0 1.4803e-16 -0 1.4803e-16)
(1.4803e-16 -4.07007e-17 -0 1.4803e-16 -0 1.4803e-16)
(1.4803e-16 -4.11364e-17 -0 1.4803e-16 -0 1.4803e-16)
(1.4803e-16 -3.92467e-17 -0 1.4803e-16 -0 1.4803e-16)
(1.4803e-16 -3.93907e-17 -0 1.4803e-16 -0 1.4803e-16)
(1.4803e-16 -3.93733e-17 -0 1.4803e-16 -0 1.4803e-16)
(1.4803e-16 -3.97962e-17 -0 1.4803e-16 -0 1.4803e-16)
(1.4803e-16 -3.78092e-17 -0 1.4803e-16 -0 1.4803e-16)
(1.4803e-16 -3.79519e-17 -0 1.4803e-16 -0 1.4803e-16)
(1.4803e-16 -3.79334e-17 -0 1.4803e-16 -0 1.4803e-16)
(1.4803e-16 -3.83463e-17 -0 1.4803e-16 -0 1.4803e-16)
(1.4803e-16 -3.62588e-17 -0 1.4803e-16 -0 1.4803e-16)
(1.4803e-16 -3.63933e-17 -0 1.4803e-16 -0 1.4803e-16)
(1.4803e-16 -3.6374e-17 -0 1.4803e-16 -0 1.4803e-16)
(1.4803e-16 -3.67775e-17 -0 1.4803e-16 -0 1.4803e-16)
(1.4803e-16 -3.45884e-17 -0 1.4803e-16 -0 1.4803e-16)
(1.4803e-16 -3.47059e-17 -0 1.4803e-16 -0 1.4803e-16)
(1.4803e-16 -3.46907e-17 -0 1.4803e-16 -0 1.4803e-16)
(1.4803e-16 -3.50787e-17 -0 1.4803e-16 -0 1.4803e-16)
(1.4803e-16 -3.2794e-17 -0 1.4803e-16 -0 1.4803e-16)
(1.4803e-16 -3.28783e-17 -0 1.4803e-16 -0 1.4803e-16)
(1.4803e-16 -3.28872e-17 -0 1.4803e-16 -0 1.4803e-16)
(1.4803e-16 -3.32369e-17 -0 1.4803e-16 -0 1.4803e-16)
(1.4803e-16 -3.08813e-17 -0 1.4803e-16 -0 1.4803e-16)
(1.4803e-16 -3.08905e-17 -0 1.4803e-16 -0 1.4803e-16)
(1.4803e-16 -3.09506e-17 -0 1.4803e-16 -0 1.4803e-16)
(1.4803e-16 -3.12454e-17 -0 1.4803e-16 -0 1.4803e-16)
(1.4803e-16 -2.87653e-17 -0 1.4803e-16 -0 1.4803e-16)
(1.4803e-16 -2.87451e-17 -0 1.4803e-16 -0 1.4803e-16)
(1.4803e-16 -2.88844e-17 -0 1.4803e-16 -0 1.4803e-16)
(1.4803e-16 -2.90898e-17 -0 1.4803e-16 -0 1.4803e-16)
(1.4803e-16 -2.64838e-17 -0 1.4803e-16 -0 1.4803e-16)
(1.4803e-16 -2.6467e-17 -0 1.4803e-16 -0 1.4803e-16)
(1.4803e-16 -2.66043e-17 -0 1.4803e-16 -0 1.4803e-16)
(1.4803e-16 -2.6782e-17 -0 1.4803e-16 -0 1.4803e-16)
(1.4803e-16 -2.40307e-17 -0 1.4803e-16 -0 1.4803e-16)
(1.4803e-16 -2.40146e-17 -0 1.4803e-16 -0 1.4803e-16)
(1.4803e-16 -2.4142e-17 -0 1.4803e-16 -0 1.4803e-16)
(1.4803e-16 -2.43035e-17 -0 1.4803e-16 -0 1.4803e-16)
(1.4803e-16 -2.1399e-17 -0 1.4803e-16 -0 1.4803e-16)
(1.4803e-16 -2.13817e-17 -0 1.4803e-16 -0 1.4803e-16)
(1.4803e-16 -2.14939e-17 -0 1.4803e-16 -0 1.4803e-16)
(1.4803e-16 -2.16457e-17 -0 1.4803e-16 -0 1.4803e-16)
(1.4803e-16 -1.85828e-17 -0 1.4803e-16 -0 1.4803e-16)
(1.4803e-16 -1.85655e-17 -0 1.4803e-16 -0 1.4803e-16)
(1.4803e-16 -1.86543e-17 -0 1.4803e-16 -0 1.4803e-16)
(1.4803e-16 -1.88025e-17 -0 1.4803e-16 -0 1.4803e-16)
(1.4803e-16 -1.55795e-17 -0 1.4803e-16 -0 1.4803e-16)
(1.4803e-16 -1.55704e-17 -0 1.4803e-16 -0 1.4803e-16)
(1.4803e-16 -1.56283e-17 -0 1.4803e-16 -0 1.4803e-16)
(1.4803e-16 -1.577e-17 -0 1.4803e-16 -0 1.4803e-16)
(1.4803e-16 -1.23918e-17 -0 1.4803e-16 -0 1.4803e-16)
(1.4803e-16 -1.24147e-17 -0 1.4803e-16 -0 1.4803e-16)
(1.4803e-16 -1.24293e-17 -0 1.4803e-16 -0 1.4803e-16)
(1.4803e-16 -1.25465e-17 -0 1.4803e-16 -0 1.4803e-16)
(1.4803e-16 -9.03348e-18 -0 1.4803e-16 -0 1.4803e-16)
(1.4803e-16 -9.04848e-18 -0 1.4803e-16 -0 1.4803e-16)
(1.4803e-16 -9.06065e-18 -0 1.4803e-16 -0 1.4803e-16)
(1.4803e-16 -9.14896e-18 -0 1.4803e-16 -0 1.4803e-16)
(1.4803e-16 -5.51587e-18 -0 1.4803e-16 -0 1.4803e-16)
(1.4803e-16 -5.51753e-18 -0 1.4803e-16 -0 1.4803e-16)
(1.4803e-16 -5.5329e-18 -0 1.4803e-16 -0 1.4803e-16)
(1.4803e-16 -5.58897e-18 -0 1.4803e-16 -0 1.4803e-16)
(1.4803e-16 -1.86138e-18 -0 1.4803e-16 -0 1.4803e-16)
(1.4803e-16 -1.86562e-18 -0 1.4803e-16 -0 1.4803e-16)
(1.4803e-16 -1.86435e-18 -0 1.4803e-16 -0 1.4803e-16)
(1.4803e-16 -1.88776e-18 -0 1.4803e-16 -0 1.4803e-16)
)
;

boundaryField
{
    inlet
    {
        type            cyclic;
    }
    outlet
    {
        type            cyclic;
    }
    fixedWalls-bottom
    {
        type            kqRWallFunction;
        value           uniform (1.4803e-16 -0 -0 1.4803e-16 -0 1.4803e-16);
    }
    fixedWalls-top
    {
        type            symmetry;
    }
    frontAndBack
    {
        type            empty;
    }
}


// ************************************************************************* //
