/*--------------------------------*- C++ -*----------------------------------*\
  =========                 |
  \\      /  F ield         | OpenFOAM: The Open Source CFD Toolbox
   \\    /   O peration     | Website:  https://openfoam.org
    \\  /    A nd           | Version:  10
     \\/     M anipulation  |
\*---------------------------------------------------------------------------*/
FoamFile
{
    format      ascii;
    class       volScalarField;
    location    "7500";
    object      p;
}
// * * * * * * * * * * * * * * * * * * * * * * * * * * * * * * * * * * * * * //

dimensions      [0 2 -2 0 0 0 0];

internalField   nonuniform List<scalar> 
400
(
-2.30921e-16
-1.30014e-12
-3.37171e-12
-2.07458e-12
-2.62404e-15
-1.29831e-12
-3.3701e-12
-2.0764e-12
-4.56088e-15
-1.29615e-12
-3.36834e-12
-2.07857e-12
-6.04051e-15
-1.29401e-12
-3.36679e-12
-2.08071e-12
-7.36517e-15
-1.29187e-12
-3.36544e-12
-2.08284e-12
-8.51278e-15
-1.28971e-12
-3.36426e-12
-2.085e-12
-9.5288e-15
-1.28753e-12
-3.36325e-12
-2.08719e-12
-1.03331e-14
-1.28533e-12
-3.36243e-12
-2.08938e-12
-1.09718e-14
-1.28312e-12
-3.3618e-12
-2.09159e-12
-1.13798e-14
-1.28092e-12
-3.36138e-12
-2.09379e-12
-1.16036e-14
-1.27874e-12
-3.36116e-12
-2.09598e-12
-1.15866e-14
-1.27657e-12
-3.36116e-12
-2.09814e-12
-1.13729e-14
-1.27445e-12
-3.36138e-12
-2.10027e-12
-1.09125e-14
-1.27237e-12
-3.36182e-12
-2.10235e-12
-1.02512e-14
-1.27035e-12
-3.36249e-12
-2.10437e-12
-9.34416e-15
-1.26841e-12
-3.36338e-12
-2.1063e-12
-8.24068e-15
-1.26657e-12
-3.36449e-12
-2.10814e-12
-6.9083e-15
-1.26487e-12
-3.36581e-12
-2.10984e-12
-5.40349e-15
-1.26335e-12
-3.36731e-12
-2.11136e-12
-3.71315e-15
-1.2621e-12
-3.36898e-12
-2.11261e-12
-1.92042e-15
-1.26125e-12
-3.37078e-12
-2.11347e-12
-5.34837e-17
-1.26102e-12
-3.37263e-12
-2.11369e-12
1.74432e-15
-1.2618e-12
-3.37443e-12
-2.11291e-12
3.33984e-15
-1.26418e-12
-3.37601e-12
-2.11054e-12
4.36705e-15
-1.26931e-12
-3.37704e-12
-2.1054e-12
4.21962e-15
-1.28029e-12
-3.37688e-12
-2.09442e-12
1.82735e-15
-1.30332e-12
-3.37449e-12
-2.07139e-12
-3.228e-15
-1.34094e-12
-3.36943e-12
-2.03376e-12
-8.02492e-15
-1.36732e-12
-3.36463e-12
-2.00738e-12
-1.10987e-14
-1.37196e-12
-3.36155e-12
-2.00274e-12
-1.44047e-14
-1.37334e-12
-3.35824e-12
-2.00136e-12
-1.83988e-14
-1.37536e-12
-3.35424e-12
-1.99933e-12
-2.31112e-14
-1.3771e-12
-3.34952e-12
-1.99759e-12
-2.8501e-14
-1.37787e-12
-3.34413e-12
-1.99682e-12
-3.46655e-14
-1.37751e-12
-3.33796e-12
-1.99717e-12
-4.16039e-14
-1.37603e-12
-3.33101e-12
-1.99866e-12
-4.93603e-14
-1.37354e-12
-3.32326e-12
-2.00114e-12
-5.78622e-14
-1.37035e-12
-3.31474e-12
-2.00434e-12
-6.7166e-14
-1.36668e-12
-3.30544e-12
-2.008e-12
-7.72408e-14
-1.36268e-12
-3.29536e-12
-2.012e-12
-8.81897e-14
-1.35843e-12
-3.28441e-12
-2.01624e-12
-9.99991e-14
-1.35398e-12
-3.2726e-12
-2.02069e-12
-1.12787e-13
-1.34935e-12
-3.25981e-12
-2.02531e-12
-1.26553e-13
-1.34454e-12
-3.24604e-12
-2.03012e-12
-1.41442e-13
-1.33956e-12
-3.23115e-12
-2.0351e-12
-1.57459e-13
-1.33435e-12
-3.21513e-12
-2.0403e-12
-1.74761e-13
-1.32893e-12
-3.19783e-12
-2.04571e-12
-1.93366e-13
-1.32322e-12
-3.17922e-12
-2.05142e-12
-2.13463e-13
-1.31722e-12
-3.15913e-12
-2.05741e-12
-2.35092e-13
-1.31084e-12
-3.1375e-12
-2.06379e-12
-2.58472e-13
-1.30408e-12
-3.11412e-12
-2.07054e-12
-2.83649e-13
-1.29682e-12
-3.08894e-12
-2.0778e-12
-3.10886e-13
-1.28904e-12
-3.0617e-12
-2.08557e-12
-3.40266e-13
-1.2806e-12
-3.03232e-12
-2.094e-12
-3.7207e-13
-1.27146e-12
-3.00052e-12
-2.10314e-12
-4.06388e-13
-1.26143e-12
-2.9662e-12
-2.11316e-12
-4.43529e-13
-1.25046e-12
-2.92906e-12
-2.12413e-12
-4.83608e-13
-1.23842e-12
-2.88898e-12
-2.13617e-12
-5.26947e-13
-1.22536e-12
-2.84564e-12
-2.14923e-12
-5.73647e-13
-1.21116e-12
-2.79893e-12
-2.16343e-12
-6.2397e-13
-1.19581e-12
-2.74862e-12
-2.17877e-12
-6.77949e-13
-1.17915e-12
-2.69464e-12
-2.19543e-12
-7.35827e-13
-1.16114e-12
-2.63676e-12
-2.21344e-12
-7.97634e-13
-1.14189e-12
-2.57495e-12
-2.23268e-12
-8.6356e-13
-1.12182e-12
-2.50903e-12
-2.25274e-12
-9.33529e-13
-1.10127e-12
-2.43906e-12
-2.27329e-12
-1.00758e-12
-1.0806e-12
-2.36502e-12
-2.29397e-12
-1.08544e-12
-1.06002e-12
-2.28715e-12
-2.31455e-12
-1.16695e-12
-1.03981e-12
-2.20565e-12
-2.33475e-12
-1.25161e-12
-1.02013e-12
-2.12099e-12
-2.35443e-12
-1.33895e-12
-1.00115e-12
-2.03366e-12
-2.37341e-12
-1.42818e-12
-9.82921e-13
-1.94443e-12
-2.39163e-12
-1.51846e-12
-9.6554e-13
-1.85415e-12
-2.40901e-12
-1.60859e-12
-9.49015e-13
-1.76403e-12
-2.42553e-12
-1.69723e-12
-9.33469e-13
-1.67539e-12
-2.44107e-12
-1.78261e-12
-9.19035e-13
-1.59003e-12
-2.4555e-12
-1.8627e-12
-9.0616e-13
-1.50994e-12
-2.46837e-12
-1.935e-12
-8.95551e-13
-1.43764e-12
-2.47898e-12
-1.99656e-12
-8.88909e-13
-1.37608e-12
-2.48562e-12
-2.04366e-12
-8.89005e-13
-1.32898e-12
-2.48552e-12
-2.07318e-12
-8.98634e-13
-1.29946e-12
-2.47589e-12
-2.08726e-12
-9.18562e-13
-1.28538e-12
-2.45597e-12
-2.09193e-12
-9.49062e-13
-1.2807e-12
-2.42547e-12
-2.09102e-12
-9.87616e-13
-1.2816e-12
-2.38692e-12
-2.08504e-12
-1.01742e-12
-1.28758e-12
-2.35712e-12
-2.07351e-12
-1.01635e-12
-1.2991e-12
-2.35819e-12
-2.05958e-12
-1.09945e-12
-1.31303e-12
-2.27509e-12
-2.05337e-12
-1.79041e-12
-1.31923e-12
-1.58414e-12
-2.04446e-12
-2.76741e-12
-1.32814e-12
-6.07135e-13
-2.0166e-12
-3.35598e-12
-1.356e-12
-1.85644e-14
-1.97192e-12
-3.67381e-12
-1.40068e-12
2.99274e-13
-1.91856e-12
-3.85824e-12
-1.45404e-12
4.83708e-13
-1.8668e-12
-3.97602e-12
-1.50581e-12
6.01487e-13
-1.82191e-12
-4.05376e-12
-1.5507e-12
6.79238e-13
-1.78549e-12
-4.10535e-12
-1.58712e-12
7.30825e-13
-1.75754e-12
-4.13959e-12
-1.61506e-12
7.65063e-13
-1.73746e-12
-4.16227e-12
-1.63515e-12
7.87757e-13
-1.7242e-12
-4.17694e-12
-1.64841e-12
8.02417e-13
-1.71634e-12
-4.18597e-12
-1.65627e-12
8.11449e-13
-1.71235e-12
-4.19129e-12
-1.66027e-12
8.16772e-13
)
;

boundaryField
{
    inlet
    {
        type            cyclic;
    }
    outlet
    {
        type            cyclic;
    }
    fixedWalls-bottom
    {
        type            zeroGradient;
    }
    fixedWalls-top
    {
        type            symmetry;
    }
    frontAndBack
    {
        type            empty;
    }
}


// ************************************************************************* //
