/*--------------------------------*- C++ -*----------------------------------*\
  =========                 |
  \\      /  F ield         | OpenFOAM: The Open Source CFD Toolbox
   \\    /   O peration     | Website:  https://openfoam.org
    \\  /    A nd           | Version:  10
     \\/     M anipulation  |
\*---------------------------------------------------------------------------*/
FoamFile
{
    format      ascii;
    class       surfaceScalarField;
    location    "7500";
    object      phi;
}
// * * * * * * * * * * * * * * * * * * * * * * * * * * * * * * * * * * * * * //

dimensions      [0 3 -1 0 0 0 0];

internalField   nonuniform List<scalar> 
696
(
6.38575e-05
-9.92257e-17
6.38575e-05
2.23673e-16
6.38575e-05
2.29256e-16
-2.24035e-16
0.000194585
-7.45792e-16
0.000194585
9.17384e-16
0.000194585
8.80419e-16
-9.18241e-16
0.000330216
-1.80079e-15
0.000330216
2.1083e-15
0.000330216
1.93083e-15
-2.10971e-15
0.00047088
-3.22278e-15
0.00047088
3.81968e-15
0.00047088
3.35577e-15
-3.82152e-15
0.000616707
-4.99986e-15
0.000616707
6.07641e-15
0.000616707
5.12834e-15
-6.07861e-15
0.000767832
-7.08443e-15
0.000767832
8.90007e-15
0.000767832
7.21478e-15
-8.90279e-15
0.00092439
-9.45352e-15
0.00092439
1.23132e-14
0.00092439
9.57976e-15
-1.23163e-14
0.00108652
-1.20518e-14
0.00108652
1.63356e-14
0.00108652
1.21797e-14
-1.63395e-14
0.00125437
-1.48448e-14
0.00125437
2.09888e-14
0.00125437
1.49688e-14
-2.0993e-14
0.00142807
-1.77695e-14
0.00142807
2.62896e-14
0.00142807
1.78941e-14
-2.62942e-14
0.00160777
-2.07796e-14
0.00160777
3.22564e-14
0.00160777
2.09008e-14
-3.22615e-14
0.00179362
-2.38033e-14
0.00179362
3.89046e-14
0.00179362
2.39256e-14
-3.89103e-14
0.00198578
-2.67836e-14
0.00198578
4.62484e-14
0.00198578
2.69031e-14
-4.6255e-14
0.00218438
-2.96374e-14
0.00218438
5.42998e-14
0.00218438
2.97576e-14
-5.4307e-14
0.00238959
-3.22965e-14
0.00238959
6.30709e-14
0.00238959
3.24142e-14
-6.3079e-14
0.00260157
-3.46682e-14
0.00260157
7.2568e-14
0.00260157
3.4786e-14
-7.25762e-14
0.00282047
-3.66714e-14
0.00282047
8.27943e-14
0.00282047
3.67874e-14
-8.28035e-14
0.00304645
-3.82056e-14
0.00304645
9.37499e-14
0.00304645
3.83209e-14
-9.37584e-14
0.00327968
-3.91808e-14
0.00327968
1.05421e-13
0.00327968
3.92934e-14
-1.05429e-13
0.00352032
-3.94873e-14
0.00352032
1.17784e-13
0.00352032
3.96003e-14
-1.17794e-13
0.00376853
-3.90339e-14
0.00376853
1.30789e-13
0.00376853
3.91449e-14
-1.30799e-13
0.0040245
-3.77136e-14
0.0040245
1.44347e-13
0.0040245
3.78264e-14
-1.44359e-13
0.00428837
-3.54514e-14
0.00428837
1.58291e-13
0.00428837
3.55637e-14
-1.58305e-13
0.00456034
-3.21748e-14
0.00456034
1.7233e-13
0.00456034
3.22884e-14
-1.72346e-13
0.00484056
-2.78794e-14
0.00484056
1.85948e-13
0.00484056
2.79899e-14
-1.85964e-13
0.00512922
-2.26261e-14
0.00512922
1.98237e-13
0.00512922
2.27371e-14
-1.98254e-13
0.00542649
-1.66232e-14
0.00542649
2.07616e-13
0.00542649
1.67324e-14
-2.07633e-13
0.00573255
-1.02198e-14
0.00573255
2.1133e-13
0.00573255
1.03299e-14
-2.1135e-13
0.00604757
-3.29538e-15
0.00604757
2.11079e-13
0.00604757
3.40403e-15
-2.11098e-13
0.00637173
4.52922e-15
0.00637173
2.1049e-13
0.00637173
-4.42331e-15
-2.10508e-13
0.00670521
1.32537e-14
0.00670521
2.09668e-13
0.00670521
-1.31516e-14
-2.09685e-13
0.0070482
2.28788e-14
0.0070482
2.08726e-13
0.0070482
-2.27755e-14
-2.08744e-13
0.00740086
3.33809e-14
0.00740086
2.07824e-13
0.00740086
-3.32812e-14
-2.0784e-13
0.00776338
4.47464e-14
0.00776338
2.07102e-13
0.00776338
-4.46477e-14
-2.07118e-13
0.00813593
5.6946e-14
0.00813593
2.06748e-13
0.00813593
-5.6846e-14
-2.06766e-13
0.00851871
6.99406e-14
0.00851871
2.06927e-13
0.00851871
-6.98407e-14
-2.06947e-13
0.00891187
8.37043e-14
0.00891187
2.0782e-13
0.00891187
-8.36037e-14
-2.07841e-13
0.0093156
9.82251e-14
0.0093156
2.09518e-13
0.0093156
-9.81255e-14
-2.0954e-13
0.00973007
1.13486e-13
0.00973007
2.12102e-13
0.00973007
-1.13388e-13
-2.12126e-13
0.0101555
1.29496e-13
0.0101555
2.15573e-13
0.0101555
-1.29396e-13
-2.15598e-13
0.0105919
1.46245e-13
0.0105919
2.19968e-13
0.0105919
-1.46147e-13
-2.19994e-13
0.0110397
1.63747e-13
0.0110397
2.25233e-13
0.0110397
-1.63648e-13
-2.25261e-13
0.0114988
1.81995e-13
0.0114988
2.3137e-13
0.0114988
-1.81899e-13
-2.31396e-13
0.0119695
2.01023e-13
0.0119695
2.38296e-13
0.0119695
-2.00926e-13
-2.38324e-13
0.012452
2.20817e-13
0.012452
2.45994e-13
0.012452
-2.2072e-13
-2.46023e-13
0.0129464
2.41415e-13
0.0129464
2.54359e-13
0.0129464
-2.41321e-13
-2.54386e-13
0.0134528
2.62802e-13
0.0134528
2.63339e-13
0.0134528
-2.62708e-13
-2.63368e-13
0.0139714
2.85016e-13
0.0139714
2.72832e-13
0.0139714
-2.84923e-13
-2.72862e-13
0.0145022
3.08027e-13
0.0145022
2.82755e-13
0.0145022
-3.07935e-13
-2.82784e-13
0.0150456
3.31873e-13
0.0150456
2.92989e-13
0.0150456
-3.3178e-13
-2.93019e-13
0.0156015
3.56482e-13
0.0156015
3.03422e-13
0.0156015
-3.56393e-13
-3.03454e-13
0.0161701
3.81887e-13
0.0161701
3.13938e-13
0.0161701
-3.81794e-13
-3.13969e-13
0.0167515
4.07965e-13
0.0167515
3.2438e-13
0.0167515
-4.0787e-13
-3.24416e-13
0.0173458
4.34698e-13
0.0173458
3.34629e-13
0.0173458
-4.34606e-13
-3.34663e-13
0.0179531
4.61896e-13
0.0179531
3.44469e-13
0.0179531
-4.61804e-13
-3.44501e-13
0.0185734
4.89491e-13
0.0185734
3.5377e-13
0.0185734
-4.89401e-13
-3.538e-13
0.0192068
5.172e-13
0.0192068
3.6231e-13
0.0192068
-5.1711e-13
-3.6234e-13
0.0198533
5.44863e-13
0.0198533
3.70025e-13
0.0198533
-5.44774e-13
-3.70059e-13
0.0205131
5.72094e-13
0.0205131
3.76619e-13
0.0205131
-5.72003e-13
-3.76656e-13
0.0211861
5.9861e-13
0.0211861
3.81965e-13
0.0211861
-5.98509e-13
-3.82012e-13
0.0218723
6.23886e-13
0.0218723
3.85814e-13
0.0218723
-6.23789e-13
-3.85856e-13
0.0225717
6.47518e-13
0.0225717
3.88077e-13
0.0225717
-6.47422e-13
-3.88122e-13
0.0232842
6.68846e-13
0.0232842
3.88541e-13
0.0232842
-6.68758e-13
-3.88578e-13
0.0240099
6.873e-13
0.0240099
3.87099e-13
0.0240099
-6.87211e-13
-3.87134e-13
0.0247485
7.02018e-13
0.0247485
3.83466e-13
0.0247485
-7.01933e-13
-3.83501e-13
0.0255001
7.1225e-13
0.0255001
3.77425e-13
0.0255001
-7.12166e-13
-3.77457e-13
0.0262646
7.16929e-13
0.0262646
3.68591e-13
0.0262646
-7.16853e-13
-3.68622e-13
0.0270416
7.15107e-13
0.0270416
3.56708e-13
0.0270416
-7.1503e-13
-3.56738e-13
0.0278311
7.0556e-13
0.0278311
3.41463e-13
0.0278311
-7.05481e-13
-3.41493e-13
0.0286329
6.87133e-13
0.0286329
3.22742e-13
0.0286329
-6.87061e-13
-3.22766e-13
0.0294467
6.58469e-13
0.0294467
3.00511e-13
0.0294467
-6.58396e-13
-3.00538e-13
0.0302722
6.1827e-13
0.0302722
2.75095e-13
0.0302722
-6.18197e-13
-2.75121e-13
0.0311092
5.65158e-13
0.0311092
2.47026e-13
0.0311092
-5.65078e-13
-2.47059e-13
0.0319572
4.97886e-13
0.0319572
2.17369e-13
0.0319572
-4.97801e-13
-2.17413e-13
0.0328159
4.15283e-13
0.0328159
1.8761e-13
0.0328159
-4.15213e-13
-1.87642e-13
0.0336847
3.165e-13
0.0336847
1.59888e-13
0.0336847
-3.16441e-13
-1.59913e-13
0.0345634
2.01157e-13
0.0345634
1.36834e-13
0.0345634
-2.01106e-13
-1.36856e-13
0.0354512
6.95656e-14
0.0354512
1.21862e-13
0.0354512
-6.95199e-14
-1.21886e-13
0.0363476
-7.69114e-14
0.0363476
1.1866e-13
0.0363476
7.69613e-14
-1.18685e-13
0.037252
-2.35709e-13
0.037252
1.31277e-13
0.037252
2.35759e-13
-1.31301e-13
0.0381637
-4.02458e-13
0.0381637
1.6367e-13
0.0381637
4.0249e-13
-1.63676e-13
0.0390818
-5.72915e-13
0.0390818
2.20984e-13
0.0390818
5.72946e-13
-2.20995e-13
0.0400057
-7.43757e-13
0.0400057
3.09443e-13
0.0400057
7.43778e-13
-3.09452e-13
0.0409342
-9.11294e-13
0.0409342
4.36739e-13
0.0409342
9.11318e-13
-4.36753e-13
0.0418666
-1.07009e-12
0.0418666
6.11323e-13
0.0418666
1.07012e-12
-6.11338e-13
0.0428017
-1.21192e-12
0.0428017
8.43053e-13
0.0428017
1.21196e-12
-8.43072e-13
0.0437383
-1.3244e-12
0.0437383
1.14246e-12
0.0437383
1.32443e-12
-1.14247e-12
0.0446754
-1.39783e-12
0.0446754
1.28464e-12
0.0446754
1.39787e-12
-1.28467e-12
0.0456115
-1.4239e-12
0.0456115
1.16641e-12
0.0456115
1.42394e-12
-1.16644e-12
0.0465452
-1.39853e-12
0.0465452
9.48136e-13
0.0465452
1.39857e-12
-9.48164e-13
0.047475
-1.32594e-12
0.047475
7.01421e-13
0.047475
1.32598e-12
-7.0145e-13
0.0483993
-1.21454e-12
0.0483993
4.70742e-13
0.0483993
1.21459e-12
-4.70773e-13
0.0493164
-1.07574e-12
0.0493164
2.77602e-13
0.0493164
1.07577e-12
-2.77628e-13
0.0502244
-9.208e-13
0.0502244
1.30092e-13
0.0502244
9.20831e-13
-1.30114e-13
0.0511213
-7.59195e-13
0.0511213
2.84083e-14
0.0511213
7.59223e-13
-2.84319e-14
0.052005
-5.97866e-13
0.052005
-3.14415e-14
0.052005
5.97892e-13
3.14188e-14
0.0528732
-4.40998e-13
0.0528732
-5.60306e-14
0.0528732
4.41004e-13
5.6029e-14
0.0537235
-2.90111e-13
0.0537235
-5.31128e-14
0.0537235
2.90121e-13
5.31034e-14
0.0545534
-1.44127e-13
0.0545534
-3.125e-14
0.0545534
1.44134e-13
3.12427e-14
0.0553601
0.0553601
0.0553601
)
;

boundaryField
{
    inlet
    {
        type            cyclic;
        value           nonuniform List<scalar> 
100
(
-0.0553601
-0.0545534
-0.0537235
-0.0528732
-0.052005
-0.0511213
-0.0502244
-0.0493164
-0.0483993
-0.047475
-0.0465452
-0.0456115
-0.0446754
-0.0437383
-0.0428017
-0.0418666
-0.0409342
-0.0400057
-0.0390818
-0.0381637
-0.037252
-0.0363476
-0.0354512
-0.0345634
-0.0336847
-0.0328159
-0.0319572
-0.0311092
-0.0302722
-0.0294467
-0.0286329
-0.0278311
-0.0270416
-0.0262646
-0.0255001
-0.0247485
-0.0240099
-0.0232842
-0.0225717
-0.0218723
-0.0211861
-0.0205131
-0.0198533
-0.0192068
-0.0185734
-0.0179531
-0.0173458
-0.0167515
-0.0161701
-0.0156015
-0.0150456
-0.0145022
-0.0139714
-0.0134528
-0.0129464
-0.012452
-0.0119695
-0.0114988
-0.0110397
-0.0105919
-0.0101555
-0.00973007
-0.0093156
-0.00891187
-0.00851871
-0.00813593
-0.00776338
-0.00740086
-0.0070482
-0.00670521
-0.00637173
-0.00604757
-0.00573255
-0.00542649
-0.00512922
-0.00484056
-0.00456034
-0.00428837
-0.0040245
-0.00376853
-0.00352032
-0.00327968
-0.00304645
-0.00282047
-0.00260157
-0.00238959
-0.00218438
-0.00198578
-0.00179362
-0.00160777
-0.00142807
-0.00125437
-0.00108652
-0.00092439
-0.000767832
-0.000616707
-0.00047088
-0.000330216
-0.000194585
-6.38575e-05
)
;
    }
    outlet
    {
        type            cyclic;
        value           nonuniform List<scalar> 
100
(
0.0553601
0.0545534
0.0537235
0.0528732
0.052005
0.0511213
0.0502244
0.0493164
0.0483993
0.047475
0.0465452
0.0456115
0.0446754
0.0437383
0.0428017
0.0418666
0.0409342
0.0400057
0.0390818
0.0381637
0.037252
0.0363476
0.0354512
0.0345634
0.0336847
0.0328159
0.0319572
0.0311092
0.0302722
0.0294467
0.0286329
0.0278311
0.0270416
0.0262646
0.0255001
0.0247485
0.0240099
0.0232842
0.0225717
0.0218723
0.0211861
0.0205131
0.0198533
0.0192068
0.0185734
0.0179531
0.0173458
0.0167515
0.0161701
0.0156015
0.0150456
0.0145022
0.0139714
0.0134528
0.0129464
0.012452
0.0119695
0.0114988
0.0110397
0.0105919
0.0101555
0.00973007
0.0093156
0.00891187
0.00851871
0.00813593
0.00776338
0.00740086
0.0070482
0.00670521
0.00637173
0.00604757
0.00573255
0.00542649
0.00512922
0.00484056
0.00456034
0.00428837
0.0040245
0.00376853
0.00352032
0.00327968
0.00304645
0.00282047
0.00260157
0.00238959
0.00218438
0.00198578
0.00179362
0.00160777
0.00142807
0.00125437
0.00108652
0.00092439
0.000767832
0.000616707
0.00047088
0.000330216
0.000194585
6.38575e-05
)
;
    }
    fixedWalls-bottom
    {
        type            calculated;
        value           uniform 0;
    }
    fixedWalls-top
    {
        type            symmetry;
        value           uniform 0;
    }
    frontAndBack
    {
        type            empty;
        value           nonuniform List<scalar> 0();
    }
}


// ************************************************************************* //
