/*--------------------------------*- C++ -*----------------------------------*\
  =========                 |
  \\      /  F ield         | OpenFOAM: The Open Source CFD Toolbox
   \\    /   O peration     | Website:  https://openfoam.org
    \\  /    A nd           | Version:  10
     \\/     M anipulation  |
\*---------------------------------------------------------------------------*/
FoamFile
{
    format      ascii;
    class       volVectorField;
    location    "7500";
    object      U;
}
// * * * * * * * * * * * * * * * * * * * * * * * * * * * * * * * * * * * * * //

dimensions      [0 1 -1 0 0 0 0];

internalField   nonuniform List<vector> 
400
(
(0.00692035 3.05643e-17 0)
(0.00692035 2.75831e-17 0)
(0.00692035 3.80861e-17 0)
(0.00692035 -2.76562e-17 0)
(0.0207943 -3.30746e-16 0)
(0.0207943 4.7036e-16 0)
(0.0207943 4.72936e-16 0)
(0.0207943 -4.71032e-16 0)
(0.0347978 -1.17019e-15 0)
(0.0347978 1.39033e-15 0)
(0.0347978 1.31282e-15 0)
(0.0347978 -1.39146e-15 0)
(0.0489308 -2.42454e-15 0)
(0.0489308 2.83521e-15 0)
(0.0489308 2.55629e-15 0)
(0.0489308 -2.83684e-15 0)
(0.0631931 -4.03581e-15 0)
(0.0631931 4.81662e-15 0)
(0.0631931 4.16509e-15 0)
(0.0631931 -4.81863e-15 0)
(0.0775846 -5.97634e-15 0)
(0.0775846 7.35376e-15 0)
(0.0775846 6.10488e-15 0)
(0.0775846 -7.35624e-15 0)
(0.092105 -8.21343e-15 0)
(0.092105 1.04689e-14 0)
(0.092105 8.34137e-15 0)
(0.092105 -1.04718e-14 0)
(0.106754 -1.07087e-14 0)
(0.106754 1.41837e-14 0)
(0.106754 1.08357e-14 0)
(0.106754 -1.41871e-14 0)
(0.121532 -1.34172e-14 0)
(0.121532 1.85188e-14 0)
(0.121532 1.35431e-14 0)
(0.121532 -1.85229e-14 0)
(0.136437 -1.62901e-14 0)
(0.136437 2.34937e-14 0)
(0.136437 1.64143e-14 0)
(0.136437 -2.34981e-14 0)
(0.15147 -1.92725e-14 0)
(0.15147 2.91257e-14 0)
(0.15147 1.93954e-14 0)
(0.15147 -2.91305e-14 0)
(0.16663 -2.23055e-14 0)
(0.16663 3.54318e-14 0)
(0.16663 2.24273e-14 0)
(0.16663 -3.54372e-14 0)
(0.181916 -2.53248e-14 0)
(0.181916 4.24269e-14 0)
(0.181916 2.54457e-14 0)
(0.181916 -4.24331e-14 0)
(0.197327 -2.82602e-14 0)
(0.197327 5.01241e-14 0)
(0.197327 2.83801e-14 0)
(0.197327 -5.01311e-14 0)
(0.212863 -3.10361e-14 0)
(0.212863 5.85357e-14 0)
(0.212863 3.11552e-14 0)
(0.212863 -5.85434e-14 0)
(0.228524 -3.35721e-14 0)
(0.228524 6.76711e-14 0)
(0.228524 3.36898e-14 0)
(0.228524 -6.76792e-14 0)
(0.244307 -3.57808e-14 0)
(0.244307 7.75354e-14 0)
(0.244307 3.58976e-14 0)
(0.244307 -7.75441e-14 0)
(0.260212 -3.75716e-14 0)
(0.260212 8.81311e-14 0)
(0.260212 3.76872e-14 0)
(0.260212 -8.81399e-14 0)
(0.276237 -3.88488e-14 0)
(0.276237 9.9452e-14 0)
(0.276237 3.89628e-14 0)
(0.276237 -9.94607e-14 0)
(0.292383 -3.9512e-14 0)
(0.292383 1.11482e-13 0)
(0.292383 3.96248e-14 0)
(0.292383 -1.11492e-13 0)
(0.308646 -3.946e-14 0)
(0.308646 1.24189e-13 0)
(0.308646 3.9572e-14 0)
(0.308646 -1.24199e-13 0)
(0.325026 -3.8592e-14 0)
(0.325026 1.37507e-13 0)
(0.325026 3.87039e-14 0)
(0.325026 -1.37518e-13 0)
(0.341522 -3.6814e-14 0)
(0.341522 1.51321e-13 0)
(0.341522 3.69264e-14 0)
(0.341522 -1.51334e-13 0)
(0.35813 -3.40447e-14 0)
(0.35813 1.65439e-13 0)
(0.35813 3.41576e-14 0)
(0.35813 -1.65454e-13 0)
(0.374851 -3.02355e-14 0)
(0.374851 1.79533e-13 0)
(0.374851 3.03477e-14 0)
(0.374851 -1.7955e-13 0)
(0.391681 -2.54147e-14 0)
(0.391681 1.92892e-13 0)
(0.391681 2.55256e-14 0)
(0.391681 -1.92908e-13 0)
(0.408619 -1.97701e-14 0)
(0.408619 2.03833e-13 0)
(0.408619 1.988e-14 0)
(0.408619 -2.03849e-13 0)
(0.425663 -1.36505e-14 0)
(0.425663 2.09528e-13 0)
(0.425663 1.376e-14 0)
(0.425663 -2.09547e-13 0)
(0.44281 -6.84878e-15 0)
(0.44281 2.12384e-13 0)
(0.44281 6.95841e-15 0)
(0.44281 -2.12404e-13 0)
(0.460058 4.56157e-16 0)
(0.460058 2.11182e-13 0)
(0.460058 -3.4875e-16 0)
(0.460058 -2.11201e-13 0)
(0.477405 8.69748e-15 0)
(0.477405 2.10094e-13 0)
(0.477405 -8.59348e-15 0)
(0.477405 -2.10111e-13 0)
(0.494847 1.78754e-14 0)
(0.494847 2.09162e-13 0)
(0.494847 -1.77727e-14 0)
(0.494847 -2.09179e-13 0)
(0.512381 2.79503e-14 0)
(0.512381 2.08237e-13 0)
(0.512381 -2.78487e-14 0)
(0.512381 -2.08254e-13 0)
(0.530006 3.88952e-14 0)
(0.530006 2.07394e-13 0)
(0.530006 -3.87962e-14 0)
(0.530006 -2.0741e-13 0)
(0.547717 5.06875e-14 0)
(0.547717 2.06812e-13 0)
(0.547717 -5.05883e-14 0)
(0.547717 -2.06829e-13 0)
(0.56551 6.32912e-14 0)
(0.56551 2.06691e-13 0)
(0.56551 -6.31911e-14 0)
(0.56551 -2.0671e-13 0)
(0.583384 7.66795e-14 0)
(0.583384 2.07196e-13 0)
(0.583384 -7.65794e-14 0)
(0.583384 -2.07216e-13 0)
(0.601333 9.08284e-14 0)
(0.601333 2.0847e-13 0)
(0.601333 -9.07283e-14 0)
(0.601333 -2.08491e-13 0)
(0.619354 1.05724e-13 0)
(0.619354 2.106e-13 0)
(0.619354 -1.05625e-13 0)
(0.619354 -2.10623e-13 0)
(0.637443 1.21363e-13 0)
(0.637443 2.13626e-13 0)
(0.637443 -1.21264e-13 0)
(0.637443 -2.1365e-13 0)
(0.655595 1.37745e-13 0)
(0.655595 2.17563e-13 0)
(0.655595 -1.37646e-13 0)
(0.655595 -2.17588e-13 0)
(0.673806 1.54871e-13 0)
(0.673806 2.22402e-13 0)
(0.673806 -1.54773e-13 0)
(0.673806 -2.22429e-13 0)
(0.692071 1.72747e-13 0)
(0.692071 2.28116e-13 0)
(0.692071 -1.7265e-13 0)
(0.692071 -2.28142e-13 0)
(0.710384 1.91384e-13 0)
(0.710384 2.34662e-13 0)
(0.710384 -1.91288e-13 0)
(0.710384 -2.34689e-13 0)
(0.728742 2.10795e-13 0)
(0.728742 2.41992e-13 0)
(0.728742 -2.10698e-13 0)
(0.728742 -2.42021e-13 0)
(0.747138 2.30989e-13 0)
(0.747138 2.50044e-13 0)
(0.747138 -2.30894e-13 0)
(0.747138 -2.50072e-13 0)
(0.765567 2.51982e-13 0)
(0.765567 2.58738e-13 0)
(0.765567 -2.51888e-13 0)
(0.765567 -2.58766e-13 0)
(0.784022 2.73784e-13 0)
(0.784022 2.67998e-13 0)
(0.784022 -2.7369e-13 0)
(0.784022 -2.68027e-13 0)
(0.802498 2.96399e-13 0)
(0.802498 2.77731e-13 0)
(0.802498 -2.96307e-13 0)
(0.802498 -2.77761e-13 0)
(0.820988 3.19834e-13 0)
(0.820988 2.87835e-13 0)
(0.820988 -3.19741e-13 0)
(0.820988 -2.87865e-13 0)
(0.839484 3.44073e-13 0)
(0.839484 2.98196e-13 0)
(0.839484 -3.43982e-13 0)
(0.839484 -2.98227e-13 0)
(0.857981 3.69095e-13 0)
(0.857981 3.08699e-13 0)
(0.857981 -3.69005e-13 0)
(0.857981 -3.0873e-13 0)
(0.87647 3.9486e-13 0)
(0.87647 3.19207e-13 0)
(0.87647 -3.94766e-13 0)
(0.87647 -3.19241e-13 0)
(0.894944 4.21296e-13 0)
(0.894944 3.29583e-13 0)
(0.894944 -4.21201e-13 0)
(0.894944 -3.29619e-13 0)
(0.913395 4.48298e-13 0)
(0.913395 3.39665e-13 0)
(0.913395 -4.48206e-13 0)
(0.913395 -3.39698e-13 0)
(0.931814 4.75738e-13 0)
(0.931814 3.49287e-13 0)
(0.931814 -4.75646e-13 0)
(0.931814 -3.49317e-13 0)
(0.950193 5.03446e-13 0)
(0.950193 3.58289e-13 0)
(0.950193 -5.03355e-13 0)
(0.950193 -3.5832e-13 0)
(0.968522 5.31199e-13 0)
(0.968522 3.66477e-13 0)
(0.968522 -5.31109e-13 0)
(0.968522 -3.66508e-13 0)
(0.986793 5.58726e-13 0)
(0.986793 3.7368e-13 0)
(0.986793 -5.58636e-13 0)
(0.986793 -3.73716e-13 0)
(1.00499 5.85692e-13 0)
(1.00499 3.79691e-13 0)
(1.00499 -5.85597e-13 0)
(1.00499 -3.79733e-13 0)
(1.02312 6.11697e-13 0)
(1.02312 3.84318e-13 0)
(1.02312 -6.11598e-13 0)
(1.02312 -3.84362e-13 0)
(1.04115 6.36276e-13 0)
(1.04115 3.87395e-13 0)
(1.04115 -6.36178e-13 0)
(1.04115 -3.8744e-13 0)
(1.05908 6.589e-13 0)
(1.05908 3.88783e-13 0)
(1.05908 -6.58808e-13 0)
(1.05908 -3.88824e-13 0)
(1.0769 6.78954e-13 0)
(1.0769 3.88331e-13 0)
(1.0769 -6.78866e-13 0)
(1.0769 -3.88366e-13 0)
(1.0946 6.95726e-13 0)
(1.0946 3.85848e-13 0)
(1.0946 -6.95639e-13 0)
(1.0946 -3.85883e-13 0)
(1.11216 7.08406e-13 0)
(1.11216 3.81079e-13 0)
(1.11216 -7.08322e-13 0)
(1.11216 -3.81111e-13 0)
(1.12957 7.16088e-13 0)
(1.12957 3.73715e-13 0)
(1.12957 -7.16008e-13 0)
(1.12957 -3.73746e-13 0)
(1.14682 7.17762e-13 0)
(1.14682 3.6342e-13 0)
(1.14682 -7.17684e-13 0)
(1.14682 -3.63452e-13 0)
(1.16389 7.12339e-13 0)
(1.16389 3.49901e-13 0)
(1.16389 -7.12261e-13 0)
(1.16389 -3.4993e-13 0)
(1.18077 6.98626e-13 0)
(1.18077 3.32925e-13 0)
(1.18077 -6.98551e-13 0)
(1.18077 -3.32951e-13 0)
(1.19744 6.75366e-13 0)
(1.19744 3.12404e-13 0)
(1.19744 -6.75293e-13 0)
(1.19744 -3.1243e-13 0)
(1.21389 6.41218e-13 0)
(1.21389 2.88464e-13 0)
(1.21389 -6.41144e-13 0)
(1.21389 -2.88492e-13 0)
(1.23011 5.94835e-13 0)
(1.23011 2.61519e-13 0)
(1.23011 -5.94759e-13 0)
(1.23011 -2.61548e-13 0)
(1.24607 5.34884e-13 0)
(1.24607 2.32341e-13 0)
(1.24607 -5.34803e-13 0)
(1.24607 -2.32379e-13 0)
(1.26176 4.60131e-13 0)
(1.26176 2.02193e-13 0)
(1.26176 -4.60054e-13 0)
(1.26176 -2.02232e-13 0)
(1.27716 3.69526e-13 0)
(1.27716 1.72875e-13 0)
(1.27716 -3.69462e-13 0)
(1.27716 -1.72903e-13 0)
(1.29225 2.62401e-13 0)
(1.29225 1.46786e-13 0)
(1.29225 -2.62346e-13 0)
(1.29225 -1.46809e-13 0)
(1.30701 1.38647e-13 0)
(1.30701 1.26985e-13 0)
(1.30701 -1.38598e-13 0)
(1.30701 -1.27008e-13 0)
(1.32142 -9.63655e-16 0)
(1.32142 1.17048e-13 0)
(1.32142 1.01109e-15 0)
(1.32142 -1.17072e-13 0)
(1.33547 -1.54363e-13 0)
(1.33547 1.20734e-13 0)
(1.33547 1.54413e-13 0)
(1.33547 -1.20759e-13 0)
(1.34913 -3.17785e-13 0)
(1.34913 1.42094e-13 0)
(1.34913 3.17826e-13 0)
(1.34913 -1.42109e-13 0)
(1.36238 -4.87453e-13 0)
(1.36238 1.8567e-13 0)
(1.36238 4.87484e-13 0)
(1.36238 -1.85679e-13 0)
(1.37519 -6.59175e-13 0)
(1.37519 2.56418e-13 0)
(1.37519 6.59201e-13 0)
(1.37519 -2.56428e-13 0)
(1.38754 -8.2954e-13 0)
(1.38754 3.60527e-13 0)
(1.38754 8.29563e-13 0)
(1.38754 -3.60539e-13 0)
(1.39941 -9.94203e-13 0)
(1.39941 5.10419e-13 0)
(1.39941 9.94228e-13 0)
(1.39941 -5.10434e-13 0)
(1.41077 -1.1465e-12 0)
(1.41077 7.32544e-13 0)
(1.41077 1.14653e-12 0)
(1.41077 -7.3256e-13 0)
(1.4216 -1.27653e-12 0)
(1.4216 1.04179e-12 0)
(1.4216 1.27656e-12 0)
(1.4216 -1.04181e-12 0)
(1.43186 -1.37469e-12 0)
(1.43186 1.18891e-12 0)
(1.43186 1.37472e-12 0)
(1.43186 -1.18893e-12 0)
(1.44154 -1.42404e-12 0)
(1.44154 1.26604e-12 0)
(1.44154 1.42408e-12 0)
(1.44154 -1.26607e-12 0)
(1.45059 -1.42333e-12 0)
(1.45059 1.0867e-12 0)
(1.45059 1.42337e-12 0)
(1.45059 -1.08672e-12 0)
(1.459 -1.3719e-12 0)
(1.459 8.32354e-13 0)
(1.459 1.37194e-12 0)
(1.459 -8.32383e-13 0)
(1.46672 -1.27748e-12 0)
(1.46672 5.8084e-13 0)
(1.46672 1.27752e-12 0)
(1.46672 -5.80869e-13 0)
(1.47373 -1.14977e-12 0)
(1.47373 3.64075e-13 0)
(1.47373 1.14981e-12 0)
(1.47373 -3.64103e-13 0)
(1.47999 -1.00039e-12 0)
(1.47999 1.92563e-13 0)
(1.47999 1.00043e-12 0)
(1.47999 -1.92587e-13 0)
(1.48548 -8.40107e-13 0)
(1.48548 6.84225e-14 0)
(1.48548 8.40137e-13 0)
(1.48548 -6.84453e-14 0)
(1.49014 -6.77285e-13 0)
(1.49014 -1.10266e-14 0)
(1.49014 6.77312e-13 0)
(1.49014 1.10037e-14 0)
(1.49395 -5.17544e-13 0)
(1.49395 -5.1453e-14 0)
(1.49395 5.17559e-13 0)
(1.49395 5.14421e-14 0)
(1.49687 -3.63675e-13 0)
(1.49687 -6.01862e-14 0)
(1.49687 3.63683e-13 0)
(1.49687 6.01802e-14 0)
(1.49886 -2.15813e-13 0)
(1.49886 -4.55624e-14 0)
(1.49886 2.15822e-13 0)
(1.49886 4.55536e-14 0)
(1.49987 -7.17707e-14 0)
(1.49987 -1.6578e-14 0)
(1.49987 7.17734e-14 0)
(1.49987 1.65751e-14 0)
)
;

boundaryField
{
    inlet
    {
        type            cyclic;
    }
    outlet
    {
        type            cyclic;
    }
    fixedWalls-bottom
    {
        type            noSlip;
    }
    fixedWalls-top
    {
        type            symmetry;
    }
    frontAndBack
    {
        type            empty;
    }
}


// ************************************************************************* //
