/*--------------------------------*- C++ -*----------------------------------*\
  =========                 |
  \\      /  F ield         | OpenFOAM: The Open Source CFD Toolbox
   \\    /   O peration     | Website:  https://openfoam.org
    \\  /    A nd           | Version:  10
     \\/     M anipulation  |
\*---------------------------------------------------------------------------*/
FoamFile
{
    format      ascii;
    class       volScalarField;
    location    "3620";
    object      k;
}
// * * * * * * * * * * * * * * * * * * * * * * * * * * * * * * * * * * * * * //

dimensions      [0 2 -2 0 0 0 0];

internalField   nonuniform List<scalar> 
400
(
1.79393e-09
1.79378e-09
1.79379e-09
1.79397e-09
5.38236e-08
5.38191e-08
5.38194e-08
5.38249e-08
3.81178e-07
3.81146e-07
3.81149e-07
3.81188e-07
1.38586e-06
1.38574e-06
1.38575e-06
1.38589e-06
3.58596e-06
3.58566e-06
3.58569e-06
3.58605e-06
7.59394e-06
7.59331e-06
7.59335e-06
7.59413e-06
1.41101e-05
1.41089e-05
1.4109e-05
1.41105e-05
2.39197e-05
2.39177e-05
2.39179e-05
2.39204e-05
3.78896e-05
3.78865e-05
3.78868e-05
3.78907e-05
5.69624e-05
5.69577e-05
5.69582e-05
5.69642e-05
8.21463e-05
8.21396e-05
8.21403e-05
8.2149e-05
0.000114499
0.000114489
0.00011449
0.000114503
0.000155101
0.000155089
0.00015509
0.000155107
0.000205028
0.000205011
0.000205013
0.000205036
0.000265298
0.000265277
0.00026528
0.00026531
0.000336824
0.000336798
0.000336802
0.000336841
0.00042035
0.000420318
0.000420323
0.000420372
0.00051638
0.000516341
0.000516348
0.000516409
0.000625118
0.000625072
0.000625081
0.000625156
0.000746412
0.000746358
0.00074637
0.000746459
0.000879714
0.000879652
0.000879666
0.000879773
0.00102408
0.00102401
0.00102402
0.00102415
0.00117816
0.00117808
0.0011781
0.00117825
0.00134031
0.00134023
0.00134025
0.00134041
0.00150861
0.00150851
0.00150854
0.00150872
0.00168096
0.00168086
0.00168089
0.00168108
0.00185524
0.00185513
0.00185515
0.00185536
0.00202931
0.0020292
0.00202922
0.00202944
0.00220131
0.00220118
0.0022012
0.00220143
0.00237014
0.00237002
0.00237003
0.00237027
0.00253482
0.00253469
0.00253471
0.00253496
0.00269441
0.00269428
0.00269429
0.00269454
0.00284808
0.00284795
0.00284796
0.00284821
0.00299513
0.002995
0.00299501
0.00299526
0.003135
0.00313486
0.00313487
0.00313513
0.00326722
0.00326709
0.0032671
0.00326735
0.00339147
0.00339134
0.00339134
0.0033916
0.00350751
0.00350738
0.00350739
0.00350764
0.00361521
0.00361509
0.00361509
0.00361533
0.00371452
0.0037144
0.00371441
0.00371465
0.00380548
0.00380536
0.00380537
0.0038056
0.00388816
0.00388805
0.00388805
0.00388828
0.0039627
0.0039626
0.0039626
0.00396281
0.00402926
0.00402916
0.00402917
0.00402937
0.00408802
0.00408793
0.00408793
0.00408813
0.00413914
0.00413906
0.00413906
0.00413926
0.00418277
0.0041827
0.0041827
0.00418289
0.00421901
0.00421895
0.00421896
0.00421914
0.00424801
0.00424795
0.00424796
0.00424813
0.00427036
0.00427032
0.00427032
0.00427049
0.0042865
0.00428647
0.00428647
0.00428662
0.00429682
0.0042968
0.0042968
0.00429694
0.00430169
0.00430167
0.00430167
0.0043018
0.00430143
0.00430142
0.00430143
0.00430153
0.00429635
0.00429634
0.00429635
0.00429644
0.00428669
0.00428669
0.00428669
0.00428677
0.00427267
0.00427267
0.00427267
0.00427273
0.00425445
0.00425445
0.00425446
0.00425451
0.00423218
0.00423218
0.00423219
0.00423222
0.00420596
0.00420596
0.00420596
0.00420599
0.00417585
0.00417585
0.00417586
0.00417587
0.00414191
0.00414191
0.00414193
0.00414192
0.00410417
0.00410417
0.00410419
0.00410417
0.00406265
0.00406266
0.00406268
0.00406266
0.00401739
0.0040174
0.00401742
0.00401739
0.0039684
0.00396841
0.00396843
0.0039684
0.0039157
0.00391571
0.00391574
0.0039157
0.00385933
0.00385935
0.00385937
0.00385933
0.00379934
0.00379936
0.00379938
0.00379934
0.00373578
0.00373579
0.00373581
0.00373578
0.00366871
0.00366872
0.00366874
0.00366871
0.0035982
0.00359821
0.00359823
0.0035982
0.00352435
0.00352435
0.00352437
0.00352435
0.00344723
0.00344723
0.00344725
0.00344724
0.00336694
0.00336694
0.00336696
0.00336696
0.00328358
0.00328359
0.0032836
0.00328361
0.00319734
0.00319734
0.00319736
0.00319738
0.00310858
0.00310856
0.00310858
0.00310863
0.00301753
0.00301749
0.00301751
0.00301758
0.00292422
0.00292419
0.00292419
0.00292428
0.00282884
0.00282881
0.00282881
0.0028289
0.00273164
0.00273162
0.00273161
0.00273171
0.00263297
0.00263296
0.00263295
0.00263306
0.00253327
0.00253327
0.00253325
0.00253337
0.00243303
0.00243303
0.002433
0.00243313
0.0023328
0.00233281
0.00233278
0.00233291
0.00223324
0.00223324
0.00223323
0.00223334
0.00213503
0.00213503
0.00213503
0.00213513
0.00203894
0.00203893
0.00203893
0.00203903
0.00194577
0.00194577
0.00194577
0.00194586
0.0018564
0.0018564
0.0018564
0.00185649
0.00177174
0.00177174
0.00177174
0.00177183
0.00169274
0.00169273
0.00169273
0.00169282
0.00162037
0.00162034
0.00162035
0.00162045
0.00155559
0.00155553
0.00155555
0.00155566
0.00149931
0.00149921
0.00149924
0.00149937
0.00145217
0.00145205
0.00145208
0.00145223
0.00141488
0.00141475
0.00141478
0.00141494
0.00138898
0.00138885
0.00138887
0.00138902
0.00137572
0.00137559
0.00137561
0.00137577
)
;

boundaryField
{
    inlet
    {
        type            cyclic;
    }
    outlet
    {
        type            cyclic;
    }
    fixedWalls-bottom
    {
        type            kqRWallFunction;
        value           nonuniform List<scalar> 4(1.79393e-09 1.79378e-09 1.79379e-09 1.79397e-09);
    }
    fixedWalls-top
    {
        type            symmetry;
    }
    frontAndBack
    {
        type            empty;
    }
}


// ************************************************************************* //
