/*--------------------------------*- C++ -*----------------------------------*\
  =========                 |
  \\      /  F ield         | OpenFOAM: The Open Source CFD Toolbox
   \\    /   O peration     | Website:  https://openfoam.org
    \\  /    A nd           | Version:  10
     \\/     M anipulation  |
\*---------------------------------------------------------------------------*/
FoamFile
{
    format      ascii;
    class       volScalarField;
    location    "3620";
    object      nut;
}
// * * * * * * * * * * * * * * * * * * * * * * * * * * * * * * * * * * * * * //

dimensions      [0 2 -1 0 0 0 0];

internalField   nonuniform List<scalar> 
400
(
7.1931e-14
7.1925e-14
7.19254e-14
7.19327e-14
1.26175e-11
1.26165e-11
1.26165e-11
1.26178e-11
2.65631e-10
2.65609e-10
2.65611e-10
2.65639e-10
2.0559e-09
2.05573e-09
2.05575e-09
2.05596e-09
9.40448e-09
9.40369e-09
9.40375e-09
9.40471e-09
3.13875e-08
3.13849e-08
3.13851e-08
3.13882e-08
8.50973e-08
8.50901e-08
8.50905e-08
8.50991e-08
1.99223e-07
1.99206e-07
1.99207e-07
1.99227e-07
4.18197e-07
4.18161e-07
4.18164e-07
4.18205e-07
8.06766e-07
8.06696e-07
8.06701e-07
8.06782e-07
1.4547e-06
1.45457e-06
1.45458e-06
1.45473e-06
2.48117e-06
2.48096e-06
2.48098e-06
2.48124e-06
4.03824e-06
4.03789e-06
4.03793e-06
4.03835e-06
6.31242e-06
6.31188e-06
6.31196e-06
6.31263e-06
9.52362e-06
9.52281e-06
9.52296e-06
9.524e-06
1.39203e-05
1.39191e-05
1.39194e-05
1.3921e-05
1.97701e-05
1.97686e-05
1.9769e-05
1.97713e-05
2.73463e-05
2.73442e-05
2.73449e-05
2.73483e-05
3.69091e-05
3.69064e-05
3.69076e-05
3.69124e-05
4.86853e-05
4.86819e-05
4.86838e-05
4.86904e-05
6.28466e-05
6.28425e-05
6.28452e-05
6.28544e-05
7.94906e-05
7.94858e-05
7.94897e-05
7.95019e-05
9.8627e-05
9.86215e-05
9.86269e-05
9.86431e-05
0.000120171
0.000120165
0.000120172
0.000120193
0.000143947
0.000143941
0.00014395
0.000143976
0.000169698
0.000169691
0.000169702
0.000169735
0.000197101
0.000197093
0.000197107
0.000197147
0.000225792
0.000225785
0.0002258
0.000225849
0.000251315
0.000251301
0.000251303
0.00025133
0.000276423
0.000276408
0.000276409
0.000276437
0.000302045
0.000302029
0.00030203
0.000302059
0.000328106
0.00032809
0.000328091
0.000328121
0.000354497
0.00035448
0.000354481
0.000354512
0.000381108
0.00038109
0.000381091
0.000381124
0.000407833
0.000407816
0.000407816
0.00040785
0.000434574
0.000434557
0.000434557
0.000434591
0.00046124
0.000461222
0.000461223
0.000461257
0.00048775
0.000487732
0.000487733
0.000487767
0.000514039
0.000514022
0.000514022
0.000514056
0.000540064
0.000540048
0.000540049
0.000540082
0.000565817
0.000565802
0.000565802
0.000565834
0.000591335
0.00059132
0.00059132
0.000591351
0.000616718
0.000616704
0.000616703
0.000616731
0.000642141
0.000642129
0.000642127
0.000642152
0.000667865
0.000667853
0.00066785
0.000667871
0.000694212
0.0006942
0.000694196
0.000694212
0.00072135
0.000721338
0.000721333
0.000721352
0.000746913
0.000746906
0.000746927
0.000747041
0.000764978
0.000764972
0.000764991
0.000765098
0.000782465
0.000782459
0.000782477
0.000782577
0.000799483
0.000799478
0.000799493
0.000799585
0.000816144
0.000816141
0.000816153
0.000816235
0.000832564
0.000832561
0.000832571
0.000832643
0.000848852
0.00084885
0.000848858
0.00084892
0.00086511
0.000865108
0.000865114
0.000865166
0.00088142
0.000881417
0.000881421
0.000881463
0.000897842
0.000897839
0.00089784
0.000897872
0.00091441
0.000914406
0.000914403
0.000914426
0.00093113
0.000931126
0.000931122
0.000931136
0.000947994
0.000947984
0.000947984
0.000947983
0.000964969
0.000964952
0.000964958
0.000964939
0.000982006
0.000981987
0.000981995
0.000981961
0.000999055
0.000999036
0.000999045
0.000999
0.00101606
0.00101605
0.00101605
0.001016
0.00103299
0.00103297
0.00103298
0.00103291
0.00104978
0.00104977
0.00104977
0.0010497
0.0010664
0.00106641
0.00106638
0.00106632
0.00108284
0.00108285
0.00108283
0.00108276
0.0010991
0.00109908
0.00109908
0.00109901
0.00111518
0.00111517
0.00111515
0.00111508
0.00113113
0.00113109
0.00113111
0.00113102
0.00114699
0.00114697
0.00114697
0.00114691
0.0011629
0.00116288
0.00116289
0.00116282
0.00117901
0.00117897
0.00117899
0.00117892
0.00119545
0.00119545
0.00119549
0.00119541
0.00121255
0.00121262
0.00121266
0.00121255
0.00123068
0.00123074
0.00123098
0.00123077
0.00124856
0.00124838
0.00124866
0.00124865
0.00126537
0.00126516
0.0012653
0.0012655
0.00128087
0.00128077
0.00128079
0.00128109
0.00129508
0.00129511
0.00129506
0.00129544
0.0013081
0.00130825
0.00130813
0.00130863
0.00132006
0.00132029
0.00132014
0.00132078
0.00133112
0.00133142
0.00133121
0.00133202
0.00134141
0.00134179
0.00134151
0.00134249
0.00135112
0.00135153
0.00135127
0.0013523
0.00136057
0.0013608
0.00136085
0.00136152
0.00136943
0.00136975
0.00136984
0.00137052
0.00137804
0.00137846
0.00137858
0.00137931
0.00138653
0.00138703
0.0013872
0.001388
0.00139499
0.00139556
0.00139579
0.00139666
0.00140347
0.00140407
0.0014044
0.00140536
0.00141195
0.00141247
0.00141303
0.00141406
0.0014203
0.0014205
0.00142165
0.0014227
0.0014284
0.00142745
0.00143022
0.00143111
0.00143593
0.00143472
0.00143786
0.00143891
0.0014422
0.00144084
0.00144422
0.00144546
0.00144654
0.00144512
0.00144862
0.00145013
0.00144915
0.0014479
0.00145132
0.00145328
0.00145121
0.00145037
0.00145344
0.00145607
)
;

boundaryField
{
    inlet
    {
        type            cyclic;
    }
    outlet
    {
        type            cyclic;
    }
    fixedWalls-bottom
    {
        type            nutkWallFunction;
        Cmu             0.09;
        kappa           0.41;
        E               9.8;
        value           uniform 0;
    }
    fixedWalls-top
    {
        type            symmetry;
    }
    frontAndBack
    {
        type            empty;
    }
}


// ************************************************************************* //
