/*--------------------------------*- C++ -*----------------------------------*\
  =========                 |
  \\      /  F ield         | OpenFOAM: The Open Source CFD Toolbox
   \\    /   O peration     | Website:  https://openfoam.org
    \\  /    A nd           | Version:  10
     \\/     M anipulation  |
\*---------------------------------------------------------------------------*/
FoamFile
{
    format      ascii;
    class       volScalarField;
    location    "3620";
    object      p;
}
// * * * * * * * * * * * * * * * * * * * * * * * * * * * * * * * * * * * * * //

dimensions      [0 2 -2 0 0 0 0];

internalField   nonuniform List<scalar> 
400
(
-5.45141e-13
-1.09837e-07
-2.17793e-07
-1.07991e-07
-5.26758e-11
-1.09808e-07
-2.17743e-07
-1.08019e-07
-1.02999e-10
-1.09775e-07
-2.17693e-07
-1.08052e-07
-1.41062e-10
-1.09744e-07
-2.17655e-07
-1.08084e-07
-1.68327e-10
-1.09712e-07
-2.17627e-07
-1.08115e-07
-1.85746e-10
-1.09682e-07
-2.1761e-07
-1.08146e-07
-1.93341e-10
-1.09652e-07
-2.17602e-07
-1.08176e-07
-1.90862e-10
-1.09624e-07
-2.17605e-07
-1.08204e-07
-1.78477e-10
-1.09598e-07
-2.17617e-07
-1.0823e-07
-1.56532e-10
-1.09574e-07
-2.17639e-07
-1.08253e-07
-1.25941e-10
-1.09555e-07
-2.1767e-07
-1.08273e-07
-8.80579e-11
-1.09541e-07
-2.17707e-07
-1.08287e-07
-4.51812e-11
-1.09533e-07
-2.1775e-07
-1.08294e-07
-5.93762e-13
-1.09535e-07
-2.17795e-07
-1.08293e-07
4.0758e-11
-1.09546e-07
-2.17836e-07
-1.08282e-07
7.19624e-11
-1.09569e-07
-2.17867e-07
-1.08259e-07
8.30703e-11
-1.09605e-07
-2.17878e-07
-1.08223e-07
6.04998e-11
-1.09653e-07
-2.17856e-07
-1.08174e-07
-1.41232e-11
-1.09712e-07
-2.17781e-07
-1.08115e-07
-1.6459e-10
-1.09777e-07
-2.17631e-07
-1.08051e-07
-4.20909e-10
-1.09838e-07
-2.17374e-07
-1.07989e-07
-8.18896e-10
-1.09885e-07
-2.16976e-07
-1.07942e-07
-1.39891e-09
-1.09903e-07
-2.16396e-07
-1.07924e-07
-2.20301e-09
-1.09878e-07
-2.15592e-07
-1.0795e-07
-3.27704e-09
-1.09794e-07
-2.14518e-07
-1.08033e-07
-4.68605e-09
-1.09632e-07
-2.13109e-07
-1.08196e-07
-6.51105e-09
-1.0937e-07
-2.11284e-07
-1.08457e-07
-8.65638e-09
-1.09075e-07
-2.09139e-07
-1.08753e-07
-1.03351e-08
-1.09122e-07
-2.0746e-07
-1.08705e-07
-1.13501e-08
-1.09574e-07
-2.06445e-07
-1.08254e-07
-1.23122e-08
-1.10105e-07
-2.05483e-07
-1.07722e-07
-1.33601e-08
-1.1064e-07
-2.04435e-07
-1.07187e-07
-1.44655e-08
-1.11187e-07
-2.0333e-07
-1.0664e-07
-1.56026e-08
-1.11753e-07
-2.02193e-07
-1.06075e-07
-1.67627e-08
-1.12333e-07
-2.01033e-07
-1.05494e-07
-1.79397e-08
-1.12925e-07
-1.99856e-07
-1.04902e-07
-1.91261e-08
-1.13521e-07
-1.98669e-07
-1.04306e-07
-2.03123e-08
-1.14117e-07
-1.97483e-07
-1.0371e-07
-2.14878e-08
-1.14709e-07
-1.96307e-07
-1.03118e-07
-2.26393e-08
-1.15292e-07
-1.95156e-07
-1.02535e-07
-2.37505e-08
-1.15863e-07
-1.94045e-07
-1.01964e-07
-2.48012e-08
-1.16422e-07
-1.92994e-07
-1.01405e-07
-2.57672e-08
-1.1697e-07
-1.92028e-07
-1.00857e-07
-2.66028e-08
-1.17519e-07
-1.91192e-07
-1.00308e-07
-2.72008e-08
-1.18101e-07
-1.90595e-07
-9.97258e-08
-2.74511e-08
-1.18758e-07
-1.90344e-07
-9.90685e-08
-2.78012e-08
-1.19404e-07
-1.89994e-07
-9.84223e-08
-3.01407e-08
-1.19588e-07
-1.87655e-07
-9.8239e-08
-3.43165e-08
-1.19314e-07
-1.83479e-07
-9.85127e-08
-3.83603e-08
-1.19029e-07
-1.79435e-07
-9.87974e-08
-4.19177e-08
-1.18815e-07
-1.75878e-07
-9.90117e-08
-4.50582e-08
-1.18656e-07
-1.72737e-07
-9.91707e-08
-4.78164e-08
-1.18542e-07
-1.69979e-07
-9.9284e-08
-5.01885e-08
-1.18475e-07
-1.67607e-07
-9.93514e-08
-5.21759e-08
-1.18457e-07
-1.6562e-07
-9.93694e-08
-5.37853e-08
-1.18504e-07
-1.6401e-07
-9.93228e-08
-5.50129e-08
-1.18651e-07
-1.62783e-07
-9.91753e-08
-5.5855e-08
-1.18932e-07
-1.61941e-07
-9.88939e-08
-5.63307e-08
-1.1931e-07
-1.61465e-07
-9.85166e-08
-5.646e-08
-1.19747e-07
-1.61336e-07
-9.80787e-08
-5.62409e-08
-1.20252e-07
-1.61555e-07
-9.7574e-08
-5.56611e-08
-1.2079e-07
-1.62135e-07
-9.70358e-08
-5.47302e-08
-1.21305e-07
-1.63066e-07
-9.65209e-08
-5.34657e-08
-1.2176e-07
-1.6433e-07
-9.60656e-08
-5.19301e-08
-1.22264e-07
-1.65866e-07
-9.55625e-08
-5.01066e-08
-1.2291e-07
-1.67689e-07
-9.49162e-08
-4.78494e-08
-1.23635e-07
-1.69947e-07
-9.41907e-08
-4.52828e-08
-1.24404e-07
-1.72513e-07
-9.34221e-08
-4.27699e-08
-1.25296e-07
-1.75026e-07
-9.25298e-08
-4.02726e-08
-1.26383e-07
-1.77523e-07
-9.14432e-08
-3.78536e-08
-1.27535e-07
-1.79942e-07
-9.02914e-08
-3.57169e-08
-1.28581e-07
-1.82079e-07
-8.92449e-08
-3.37588e-08
-1.29563e-07
-1.84037e-07
-8.82629e-08
-3.19012e-08
-1.30568e-07
-1.85895e-07
-8.72577e-08
-2.99374e-08
-1.31001e-07
-1.87859e-07
-8.68247e-08
-2.75683e-08
-1.29695e-07
-1.90228e-07
-8.81311e-08
-2.62334e-08
-1.25581e-07
-1.91563e-07
-9.22449e-08
-2.85604e-08
-1.21802e-07
-1.89236e-07
-9.60241e-08
-3.38721e-08
-1.2209e-07
-1.83924e-07
-9.57367e-08
-3.94196e-08
-1.24618e-07
-1.78376e-07
-9.32085e-08
-4.43922e-08
-1.2659e-07
-1.73404e-07
-9.12365e-08
-4.95065e-08
-1.27276e-07
-1.68289e-07
-9.05506e-08
-5.57852e-08
-1.27056e-07
-1.62011e-07
-9.07706e-08
-6.37567e-08
-1.26469e-07
-1.54039e-07
-9.13575e-08
-7.32069e-08
-1.25898e-07
-1.44589e-07
-9.19282e-08
-8.3368e-08
-1.25038e-07
-1.34428e-07
-9.27879e-08
-9.30565e-08
-1.22914e-07
-1.24739e-07
-9.49121e-08
-1.02102e-07
-1.19016e-07
-1.15694e-07
-9.88099e-08
-1.11303e-07
-1.13631e-07
-1.06493e-07
-1.04195e-07
-1.21073e-07
-1.07098e-07
-9.67231e-08
-1.10729e-07
-1.31443e-07
-9.96612e-08
-8.63534e-08
-1.18166e-07
-1.42359e-07
-9.15606e-08
-7.54376e-08
-1.26268e-07
-1.54271e-07
-8.28993e-08
-6.3526e-08
-1.3493e-07
-1.6898e-07
-7.33259e-08
-4.88173e-08
-1.44503e-07
-1.89492e-07
-6.24764e-08
-2.83042e-08
-1.55352e-07
-2.13483e-07
-5.15093e-08
-4.3097e-09
-1.66317e-07
-2.35688e-07
-4.19779e-08
1.78976e-08
-1.75845e-07
-2.53952e-07
-3.44677e-08
3.61636e-08
-1.8335e-07
-2.67182e-07
-2.9207e-08
4.93953e-08
-1.88607e-07
-2.75218e-07
-2.60912e-08
5.74327e-08
-1.9172e-07
)
;

boundaryField
{
    inlet
    {
        type            cyclic;
    }
    outlet
    {
        type            cyclic;
    }
    fixedWalls-bottom
    {
        type            zeroGradient;
    }
    fixedWalls-top
    {
        type            symmetry;
    }
    frontAndBack
    {
        type            empty;
    }
}


// ************************************************************************* //
