/*--------------------------------*- C++ -*----------------------------------*\
  =========                 |
  \\      /  F ield         | OpenFOAM: The Open Source CFD Toolbox
   \\    /   O peration     | Website:  https://openfoam.org
    \\  /    A nd           | Version:  10
     \\/     M anipulation  |
\*---------------------------------------------------------------------------*/
FoamFile
{
    format      ascii;
    class       volScalarField;
    location    "424";
    object      k;
}
// * * * * * * * * * * * * * * * * * * * * * * * * * * * * * * * * * * * * * //

dimensions      [0 2 -2 0 0 0 0];

internalField   nonuniform List<scalar> 
200
(
2.37945e-06
2.37904e-06
2.37911e-06
2.37943e-06
7.18041e-05
7.17916e-05
7.17936e-05
7.18033e-05
0.000509049
0.000508962
0.000508977
0.000509045
0.00169008
0.00168982
0.00168989
0.00169011
0.00339803
0.00339769
0.00339787
0.00339825
0.00499318
0.00499294
0.00499325
0.00499367
0.00621685
0.00621674
0.00621716
0.00621754
0.00711492
0.00711488
0.00711537
0.00711567
0.00775589
0.00775591
0.00775643
0.00775658
0.0082053
0.00820536
0.00820586
0.00820586
0.00851451
0.00851463
0.00851509
0.00851494
0.00872045
0.0087206
0.00872101
0.0087207
0.00884906
0.00884922
0.0088496
0.00884911
0.00891854
0.00891873
0.00891907
0.00891843
0.0089418
0.00894201
0.00894231
0.00894156
0.00892806
0.00892832
0.00892858
0.00892773
0.00888408
0.00888437
0.00888458
0.00888367
0.00881482
0.00881508
0.00881529
0.00881435
0.00872398
0.00872423
0.00872441
0.0087235
0.00861445
0.00861465
0.00861483
0.00861397
0.00848846
0.00848865
0.00848878
0.00848802
0.00834788
0.00834807
0.00834814
0.0083475
0.00819438
0.00819454
0.00819455
0.00819405
0.0080295
0.00802962
0.0080296
0.00802921
0.0078548
0.00785487
0.00785484
0.00785455
0.00767186
0.00767189
0.00767187
0.00767166
0.00748209
0.00748212
0.0074821
0.00748195
0.00728629
0.00728631
0.00728628
0.00728619
0.00708446
0.0070845
0.00708445
0.00708441
0.00687672
0.00687675
0.00687666
0.00687674
0.0066634
0.00666342
0.00666332
0.00666343
0.00644489
0.0064449
0.00644479
0.00644494
0.00622162
0.00622164
0.00622151
0.0062217
0.00599412
0.00599414
0.00599399
0.00599422
0.00576299
0.00576302
0.00576285
0.0057631
0.00552896
0.00552898
0.0055288
0.00552907
0.00529291
0.00529291
0.0052927
0.00529299
0.0050559
0.00505585
0.00505561
0.00505592
0.00481909
0.00481906
0.0048188
0.00481912
0.00458401
0.00458406
0.00458383
0.00458412
0.00435265
0.00435271
0.00435248
0.00435276
0.00412714
0.00412727
0.00412696
0.00412731
0.00391007
0.00391025
0.00390991
0.00391026
0.0037046
0.00370474
0.00370445
0.00370475
0.00351446
0.00351444
0.00351427
0.00351446
0.00334367
0.00334366
0.00334356
0.00334372
0.00319717
0.00319714
0.00319707
0.00319724
0.00308001
0.00307997
0.00307989
0.00308007
0.00299737
0.00299728
0.00299719
0.00299738
0.00295411
0.0029539
0.00295381
0.002954
)
;

boundaryField
{
    inlet
    {
        type            cyclic;
    }
    outlet
    {
        type            cyclic;
    }
    fixedWalls-bottom
    {
        type            kqRWallFunction;
        value           nonuniform List<scalar> 4(2.37945e-06 2.37904e-06 2.37911e-06 2.37943e-06);
    }
    fixedWalls-top
    {
        type            symmetry;
    }
    frontAndBack
    {
        type            empty;
    }
}


// ************************************************************************* //
