/*--------------------------------*- C++ -*----------------------------------*\
  =========                 |
  \\      /  F ield         | OpenFOAM: The Open Source CFD Toolbox
   \\    /   O peration     | Website:  https://openfoam.org
    \\  /    A nd           | Version:  10
     \\/     M anipulation  |
\*---------------------------------------------------------------------------*/
FoamFile
{
    format      ascii;
    class       volScalarField;
    location    "424";
    object      nut;
}
// * * * * * * * * * * * * * * * * * * * * * * * * * * * * * * * * * * * * * //

dimensions      [0 2 -1 0 0 0 0];

internalField   nonuniform List<scalar> 
200
(
1.83516e-09
1.83484e-09
1.83489e-09
1.83514e-09
3.23397e-07
3.23341e-07
3.23349e-07
3.23393e-07
6.50884e-06
6.50755e-06
6.50771e-06
6.50859e-06
4.06465e-05
4.06377e-05
4.06391e-05
4.06448e-05
0.000123099
0.00012308
0.000123088
0.000123105
0.000244086
0.000244071
0.000244085
0.00024411
0.000378754
0.000378744
0.000378769
0.000378801
0.000531118
0.00053111
0.000531147
0.000531182
0.000698646
0.00069864
0.000698689
0.000698716
0.000877791
0.000877791
0.000877846
0.000877858
0.00106632
0.00106633
0.00106639
0.00106638
0.00126216
0.00126218
0.00126224
0.00126219
0.00146353
0.00146355
0.00146362
0.00146353
0.00166892
0.00166896
0.00166903
0.0016689
0.001877
0.00187706
0.00187714
0.00187695
0.00208655
0.00208663
0.00208671
0.00208647
0.0022964
0.00229649
0.00229658
0.0022963
0.00250546
0.00250555
0.00250564
0.00250533
0.00271272
0.00271281
0.0027129
0.00271257
0.00291742
0.00291748
0.00291757
0.00291724
0.00311908
0.00311914
0.0031192
0.0031189
0.0033178
0.00331787
0.00331789
0.00331764
0.00351435
0.00351441
0.00351441
0.00351421
0.00371006
0.0037101
0.00371013
0.00370994
0.00390627
0.00390634
0.00390644
0.00390617
0.00410271
0.00410284
0.004103
0.00410255
0.00429397
0.0042941
0.00429419
0.00429366
0.00446318
0.00446296
0.00446271
0.00446296
0.00460096
0.00460091
0.00460074
0.00460151
0.00472752
0.00472739
0.00472751
0.0047286
0.00484255
0.00484295
0.00484285
0.00484459
0.00494657
0.00494654
0.00494687
0.00494921
0.00503801
0.00503935
0.00503834
0.00504224
0.00511768
0.00511946
0.00511818
0.00512298
0.00518493
0.00518721
0.00518554
0.00519135
0.0052396
0.00524241
0.00524016
0.00524714
0.0052816
0.00528494
0.00528195
0.00529019
0.00531095
0.00531473
0.00531117
0.00532029
0.00532772
0.00533182
0.00532911
0.00533713
0.00533251
0.00533628
0.00533477
0.00534169
0.00532742
0.00532812
0.00532773
0.00533441
0.00530739
0.00530982
0.005309
0.00531582
0.00527764
0.00528117
0.00528057
0.00528745
0.00524041
0.00524472
0.00524488
0.00525134
0.00519899
0.00520243
0.00520335
0.00520991
0.00515451
0.00515848
0.00515844
0.00516721
0.00511243
0.00511643
0.00511668
0.0051264
0.005077
0.00508127
0.0050818
0.00509219
0.00505268
0.00505802
0.00505872
0.00506989
0.00504305
0.00505212
0.00505318
0.00506514
)
;

boundaryField
{
    inlet
    {
        type            cyclic;
    }
    outlet
    {
        type            cyclic;
    }
    fixedWalls-bottom
    {
        type            nutkWallFunction;
        Cmu             0.09;
        kappa           0.41;
        E               9.8;
        value           uniform 0;
    }
    fixedWalls-top
    {
        type            symmetry;
    }
    frontAndBack
    {
        type            empty;
    }
}


// ************************************************************************* //
