/*--------------------------------*- C++ -*----------------------------------*\
  =========                 |
  \\      /  F ield         | OpenFOAM: The Open Source CFD Toolbox
   \\    /   O peration     | Website:  https://openfoam.org
    \\  /    A nd           | Version:  10
     \\/     M anipulation  |
\*---------------------------------------------------------------------------*/
FoamFile
{
    format      ascii;
    class       volScalarField;
    location    "424";
    object      omega;
}
// * * * * * * * * * * * * * * * * * * * * * * * * * * * * * * * * * * * * * //

dimensions      [0 0 -1 0 0 0 0];

internalField   nonuniform List<scalar> 
200
(
1296.59
1296.59
1296.59
1296.59
222.03
222.031
222.031
222.031
78.2089
78.211
78.2114
78.2113
41.5799
41.5827
41.5829
41.5824
27.6041
27.6056
27.6051
27.6045
20.3762
20.3758
20.3748
20.3743
15.9059
15.9044
15.903
15.9028
12.8511
12.8495
12.8481
12.8479
10.6389
10.6377
10.6361
10.6365
8.97522
8.97421
8.97329
8.9738
7.68856
7.68711
7.68703
7.68774
6.66974
6.66887
6.6689
6.67011
5.84805
5.84759
5.84761
5.84931
5.17458
5.17459
5.17455
5.17655
4.61517
4.61553
4.61551
4.6178
4.14534
4.14557
4.1458
4.14829
3.74642
3.74642
3.74713
3.7498
3.40462
3.40569
3.40534
3.40873
3.11073
3.11112
3.11146
3.11427
2.85471
2.85621
2.85563
2.8587
2.63173
2.63295
2.63257
2.63516
2.43615
2.4365
2.43671
2.43852
2.26275
2.26327
2.26346
2.26457
2.1085
2.10889
2.10912
2.10994
1.97051
1.97058
1.97099
1.97162
1.84643
1.84656
1.84672
1.84717
1.73432
1.73438
1.73461
1.73464
1.63253
1.63262
1.6327
1.63259
1.53978
1.53981
1.53985
1.53958
1.45461
1.45466
1.4546
1.45429
1.37601
1.3759
1.37591
1.37544
1.3029
1.30291
1.3028
1.30221
1.23494
1.23461
1.23483
1.23392
1.17126
1.17085
1.17112
1.17007
1.11149
1.111
1.11133
1.11014
1.05523
1.05466
1.05508
1.05373
1.00214
1.00151
1.00203
1.00053
0.951977
0.95129
0.951882
0.950309
0.904531
0.903831
0.904241
0.902943
0.859634
0.859037
0.859235
0.858178
0.817028
0.816931
0.816948
0.815978
0.777621
0.77729
0.777353
0.77642
0.740876
0.740412
0.740434
0.739535
0.70693
0.706376
0.706298
0.705486
0.675988
0.67554
0.675386
0.674572
0.648688
0.648187
0.648172
0.647104
0.625372
0.624879
0.624832
0.62368
0.60666
0.606141
0.606062
0.604862
0.593223
0.592579
0.592481
0.591212
0.585778
0.584684
0.584545
0.583201
)
;

boundaryField
{
    inlet
    {
        type            cyclic;
    }
    outlet
    {
        type            cyclic;
    }
    fixedWalls-bottom
    {
        beta1           0.075;
        blended         0;
        type            omegaWallFunction;
        value           nonuniform List<scalar> 4(1296.59 1296.59 1296.59 1296.59);
    }
    fixedWalls-top
    {
        type            symmetry;
    }
    frontAndBack
    {
        type            empty;
    }
}


// ************************************************************************* //
