/*--------------------------------*- C++ -*----------------------------------*\
  =========                 |
  \\      /  F ield         | OpenFOAM: The Open Source CFD Toolbox
   \\    /   O peration     | Website:  https://openfoam.org
    \\  /    A nd           | Version:  10
     \\/     M anipulation  |
\*---------------------------------------------------------------------------*/
FoamFile
{
    format      ascii;
    class       volScalarField;
    location    "424";
    object      p;
}
// * * * * * * * * * * * * * * * * * * * * * * * * * * * * * * * * * * * * * //

dimensions      [0 2 -2 0 0 0 0];

internalField   nonuniform List<scalar> 
200
(
3.09367e-12
-4.14073e-07
-7.38087e-07
-3.22903e-07
3.66443e-10
-4.13548e-07
-7.38396e-07
-3.23432e-07
7.55093e-10
-4.13075e-07
-7.38773e-07
-3.23911e-07
5.0401e-10
-4.13253e-07
-7.3852e-07
-3.23741e-07
-1.68176e-09
-4.1409e-07
-7.36338e-07
-3.22916e-07
-6.13697e-09
-4.14285e-07
-7.31884e-07
-3.22732e-07
-1.22835e-08
-4.12848e-07
-7.25734e-07
-3.2418e-07
-1.96737e-08
-4.09964e-07
-7.18338e-07
-3.27077e-07
-2.74259e-08
-4.06276e-07
-7.10579e-07
-3.30778e-07
-3.45558e-08
-4.02253e-07
-7.0344e-07
-3.34814e-07
-4.03158e-08
-3.98081e-07
-6.9767e-07
-3.39e-07
-4.42697e-08
-3.93872e-07
-6.93706e-07
-3.43224e-07
-4.61162e-08
-3.89803e-07
-6.91846e-07
-3.47309e-07
-4.57698e-08
-3.85862e-07
-6.92179e-07
-3.51264e-07
-4.32989e-08
-3.81961e-07
-6.94633e-07
-3.55182e-07
-3.88518e-08
-3.78017e-07
-6.99064e-07
-3.59141e-07
-3.26158e-08
-3.74162e-07
-7.0528e-07
-3.63013e-07
-2.50323e-08
-3.70741e-07
-7.12843e-07
-3.6645e-07
-1.65564e-08
-3.68265e-07
-7.21296e-07
-3.68943e-07
-7.51796e-09
-3.67316e-07
-7.3031e-07
-3.6991e-07
1.85885e-09
-3.6832e-07
-7.3966e-07
-3.68922e-07
1.13314e-08
-3.71479e-07
-7.49105e-07
-3.65782e-07
2.04135e-08
-3.76637e-07
-7.58161e-07
-3.60642e-07
2.88709e-08
-3.8284e-07
-7.66591e-07
-3.54458e-07
3.76021e-08
-3.8812e-07
-7.75298e-07
-3.49196e-07
4.89287e-08
-3.91297e-07
-7.86601e-07
-3.4604e-07
6.40898e-08
-3.95537e-07
-8.01744e-07
-3.41819e-07
7.77751e-08
-4.08779e-07
-8.15409e-07
-3.286e-07
8.23407e-08
-4.27953e-07
-8.19961e-07
-3.09449e-07
7.62747e-08
-4.43622e-07
-8.13879e-07
-2.93802e-07
6.14093e-08
-4.54397e-07
-7.99001e-07
-2.83051e-07
3.57066e-08
-4.63469e-07
-7.73284e-07
-2.74e-07
1.48302e-09
-4.73339e-07
-7.39045e-07
-2.64151e-07
-3.77148e-08
-4.82501e-07
-6.99832e-07
-2.55005e-07
-8.41617e-08
-4.90372e-07
-6.53366e-07
-2.47152e-07
-1.377e-07
-4.98966e-07
-5.9981e-07
-2.38569e-07
-1.9672e-07
-5.11037e-07
-5.40775e-07
-2.26505e-07
-2.57805e-07
-5.25296e-07
-4.79671e-07
-2.12252e-07
-3.15738e-07
-5.31036e-07
-4.21728e-07
-2.06517e-07
-3.69806e-07
-5.2549e-07
-3.67643e-07
-2.12085e-07
-4.24515e-07
-5.28638e-07
-3.12932e-07
-2.08938e-07
-4.77979e-07
-5.37851e-07
-2.59453e-07
-1.99735e-07
-5.27931e-07
-5.33121e-07
-2.09508e-07
-2.04464e-07
-5.76705e-07
-5.13233e-07
-1.60722e-07
-2.24378e-07
-6.25777e-07
-4.88407e-07
-1.11652e-07
-2.49216e-07
-6.76033e-07
-4.69594e-07
-6.13854e-08
-2.68044e-07
-7.25904e-07
-4.55859e-07
-1.15111e-08
-2.81777e-07
-7.70742e-07
-4.42822e-07
3.33329e-08
-2.94811e-07
-8.05692e-07
-4.29061e-07
6.82917e-08
-3.08572e-07
-8.29064e-07
-4.15799e-07
9.16715e-08
-3.2184e-07
)
;

boundaryField
{
    inlet
    {
        type            cyclic;
    }
    outlet
    {
        type            cyclic;
    }
    fixedWalls-bottom
    {
        type            zeroGradient;
    }
    fixedWalls-top
    {
        type            symmetry;
    }
    frontAndBack
    {
        type            empty;
    }
}


// ************************************************************************* //
