/*--------------------------------*- C++ -*----------------------------------*\
  =========                 |
  \\      /  F ield         | OpenFOAM: The Open Source CFD Toolbox
   \\    /   O peration     | Website:  https://openfoam.org
    \\  /    A nd           | Version:  10
     \\/     M anipulation  |
\*---------------------------------------------------------------------------*/
FoamFile
{
    format      ascii;
    class       surfaceScalarField;
    location    "424";
    object      phi;
}
// * * * * * * * * * * * * * * * * * * * * * * * * * * * * * * * * * * * * * //

dimensions      [0 3 -1 0 0 0 0];

internalField   nonuniform List<scalar> 
346
(
0.000965164
7.90381e-10
0.000965157
7.5339e-09
0.000965158
-8.52145e-10
-7.46249e-09
0.00298758
8.97332e-09
0.00298756
2.92534e-08
0.00298757
-9.16595e-09
-2.91308e-08
0.0051446
3.05242e-08
0.00514457
6.33954e-08
0.00514459
-3.06361e-08
-6.31748e-08
0.00734432
6.61229e-08
0.00734429
9.66591e-08
0.00734432
-6.6352e-08
-9.64295e-08
0.00941123
1.03206e-07
0.00941121
1.1371e-07
0.00941125
-1.03417e-07
-1.13425e-07
0.01125
1.31835e-07
0.01125
1.14794e-07
0.0112501
-1.3212e-07
-1.14524e-07
0.0128939
1.49175e-07
0.0128939
1.06787e-07
0.012894
-1.49452e-07
-1.06484e-07
0.0143972
1.52763e-07
0.0143972
9.31762e-08
0.0143972
-1.53079e-07
-9.28975e-08
0.0157973
1.44264e-07
0.0157973
7.53705e-08
0.0157973
-1.44578e-07
-7.5067e-08
0.0171238
1.26843e-07
0.0171238
5.39926e-08
0.0171238
-1.27175e-07
-5.37156e-08
0.0183995
1.04296e-07
0.0183995
3.04862e-08
0.0183995
-1.04625e-07
-3.01886e-08
0.0196417
7.9067e-08
0.0196417
6.17671e-09
0.0196417
-7.94015e-08
-5.9063e-09
0.0208634
5.33846e-08
0.0208635
-1.7827e-08
0.0208634
-5.37201e-08
1.81184e-08
0.022075
2.81393e-08
0.0220751
-4.04809e-08
0.022075
-2.84719e-08
4.07449e-08
0.0232845
3.96536e-09
0.0232845
-6.04421e-08
0.0232845
-4.30079e-09
6.07275e-08
0.0244984
-1.91801e-08
0.0244984
-7.6485e-08
0.0244983
1.88539e-08
7.6742e-08
0.0257219
-4.0945e-08
0.0257219
-8.75583e-08
0.0257219
4.06113e-08
8.78384e-08
0.0269597
-6.16292e-08
0.0269597
-9.34548e-08
0.0269597
6.13095e-08
9.37054e-08
0.0282156
-8.15167e-08
0.0282156
-9.46303e-08
0.0282156
8.11864e-08
9.49052e-08
0.0294929
-1.00791e-07
0.0294929
-9.25259e-08
0.0294929
1.00479e-07
9.27699e-08
0.0307945
-1.19476e-07
0.0307945
-8.88268e-08
0.0307945
1.19151e-07
8.90962e-08
0.0321231
-1.37452e-07
0.0321231
-8.5317e-08
0.0321231
1.37149e-07
8.55538e-08
0.0334808
-1.55875e-07
0.0334808
-8.30305e-08
0.0334808
1.55557e-07
8.32939e-08
0.0348694
-1.76196e-07
0.0348694
-8.12007e-08
0.0348694
1.75903e-07
8.14302e-08
0.0362906
-1.98933e-07
0.0362906
-7.48441e-08
0.0362905
1.98624e-07
7.50987e-08
0.0377456
-2.18932e-07
0.0377456
-5.59684e-08
0.0377455
2.18652e-07
5.61885e-08
0.039236
-2.25537e-07
0.0392359
-1.95841e-08
0.0392359
2.2524e-07
1.98285e-08
0.0407641
-2.13417e-07
0.0407641
2.0837e-08
0.0407641
2.1315e-07
-2.0627e-08
0.0423332
-1.89468e-07
0.0423331
5.52105e-08
0.0423331
1.89187e-07
-5.49812e-08
0.0439456
-1.6124e-07
0.0439455
8.77203e-08
0.0439456
1.60988e-07
-8.75242e-08
0.0456029
-1.31302e-07
0.0456028
1.22528e-07
0.0456029
1.31039e-07
-1.22317e-07
0.0473065
-1.06355e-07
0.0473064
1.58542e-07
0.0473065
1.0612e-07
-1.58361e-07
0.0490577
-8.86182e-08
0.0490576
1.90649e-07
0.0490576
8.8377e-08
-1.90459e-07
0.0508576
-7.23485e-08
0.0508576
2.18183e-07
0.0508576
7.21332e-08
-2.1802e-07
0.0527074
-5.93951e-08
0.0527074
2.41731e-07
0.0527074
5.91791e-08
-2.41564e-07
0.0546079
-5.03059e-08
0.0546079
2.58779e-07
0.0546079
5.01126e-08
-2.58633e-07
0.0565598
-4.49957e-08
0.0565598
2.62148e-07
0.0565598
4.48083e-08
-2.62005e-07
0.0585635
-4.30974e-08
0.0585635
2.44249e-07
0.0585635
4.29292e-08
-2.44122e-07
0.0606193
-4.08447e-08
0.0606193
2.18961e-07
0.0606193
4.06881e-08
-2.18841e-07
0.062727
-3.29054e-08
0.062727
2.13334e-07
0.062727
3.27645e-08
-2.13225e-07
0.0648859
-2.14556e-08
0.0648859
2.04409e-07
0.0648859
2.13317e-08
-2.04312e-07
0.0670951
-3.36136e-09
0.0670951
1.72155e-07
0.0670951
3.25033e-09
-1.72068e-07
0.0693528
2.21542e-08
0.0693528
1.38299e-07
0.0693528
-2.22446e-08
-1.38228e-07
0.0716566
4.62292e-08
0.0716567
1.21068e-07
0.0716567
-4.63078e-08
-1.21004e-07
0.0740033
6.38572e-08
0.0740033
1.2153e-07
0.0740033
-6.39159e-08
-1.21482e-07
0.0763884
7.35193e-08
0.0763884
1.19796e-07
0.0763884
-7.35646e-08
-1.19758e-07
0.0788065
7.44559e-08
0.0788066
1.03157e-07
0.0788066
-7.44837e-08
-1.03133e-07
0.081251
6.53247e-08
0.081251
7.16628e-08
0.081251
-6.53296e-08
-7.16593e-08
0.0837139
4.20082e-08
0.083714
3.33442e-08
0.0837139
-4.20086e-08
-3.33438e-08
0.0861863
0.0861864
0.0861863
)
;

boundaryField
{
    inlet
    {
        type            cyclic;
        value           nonuniform List<scalar> 
50
(
-0.0861863
-0.0837139
-0.081251
-0.0788065
-0.0763884
-0.0740033
-0.0716567
-0.0693528
-0.0670951
-0.0648859
-0.062727
-0.0606193
-0.0585635
-0.0565598
-0.0546079
-0.0527074
-0.0508576
-0.0490577
-0.0473065
-0.0456029
-0.0439456
-0.0423332
-0.0407641
-0.039236
-0.0377456
-0.0362905
-0.0348694
-0.0334808
-0.0321231
-0.0307945
-0.0294929
-0.0282156
-0.0269597
-0.0257219
-0.0244983
-0.0232845
-0.022075
-0.0208634
-0.0196416
-0.0183995
-0.0171238
-0.0157973
-0.0143972
-0.0128939
-0.0112501
-0.00941127
-0.00734436
-0.00514462
-0.00298759
-0.000965165
)
;
    }
    outlet
    {
        type            cyclic;
        value           nonuniform List<scalar> 
50
(
0.0861863
0.0837139
0.081251
0.0788065
0.0763884
0.0740033
0.0716567
0.0693528
0.0670951
0.0648859
0.062727
0.0606193
0.0585635
0.0565598
0.0546079
0.0527074
0.0508576
0.0490577
0.0473065
0.0456029
0.0439456
0.0423332
0.0407641
0.039236
0.0377456
0.0362905
0.0348694
0.0334808
0.0321231
0.0307945
0.0294929
0.0282156
0.0269597
0.0257219
0.0244983
0.0232845
0.022075
0.0208634
0.0196416
0.0183995
0.0171238
0.0157973
0.0143972
0.0128939
0.0112501
0.00941127
0.00734436
0.00514462
0.00298759
0.000965165
)
;
    }
    fixedWalls-bottom
    {
        type            calculated;
        value           uniform 0;
    }
    fixedWalls-top
    {
        type            symmetry;
        value           uniform 0;
    }
    frontAndBack
    {
        type            empty;
        value           nonuniform List<scalar> 0();
    }
}


// ************************************************************************* //
