/*--------------------------------*- C++ -*----------------------------------*\
  =========                 |
  \\      /  F ield         | OpenFOAM: The Open Source CFD Toolbox
   \\    /   O peration     | Website:  https://openfoam.org
    \\  /    A nd           | Version:  10
     \\/     M anipulation  |
\*---------------------------------------------------------------------------*/
FoamFile
{
    format      ascii;
    class       volSymmTensorField;
    location    "424";
    object      R;
}
// * * * * * * * * * * * * * * * * * * * * * * * * * * * * * * * * * * * * * //

dimensions      [0 2 -2 0 0 0 0];

internalField   nonuniform List<symmTensor> 
200
(
(1.5863e-06 -2.07679e-08 -0 1.5863e-06 -0 1.5863e-06)
(1.58603e-06 -2.0764e-08 -0 1.58603e-06 -0 1.58603e-06)
(1.58607e-06 -2.07645e-08 -0 1.58607e-06 -0 1.58607e-06)
(1.58628e-06 -2.07675e-08 -0 1.58628e-06 -0 1.58628e-06)
(4.78694e-05 -3.60786e-06 -0 4.78694e-05 -0 4.78694e-05)
(4.78611e-05 -3.60719e-06 -0 4.78611e-05 -0 4.78611e-05)
(4.78624e-05 -3.60728e-06 -0 4.78624e-05 -0 4.78624e-05)
(4.78688e-05 -3.60781e-06 -0 4.78688e-05 -0 4.78688e-05)
(0.000339366 -6.96332e-05 -0 0.000339366 -0 0.000339366)
(0.000339308 -6.96188e-05 -0 0.000339308 -0 0.000339308)
(0.000339318 -6.96208e-05 -0 0.000339318 -0 0.000339318)
(0.000339364 -6.96308e-05 -0 0.000339364 -0 0.000339364)
(0.00112672 -0.000389983 -0 0.00112672 -0 0.00112672)
(0.00112655 -0.0003899 -0 0.00112655 -0 0.00112655)
(0.00112659 -0.000389916 -0 0.00112659 -0 0.00112659)
(0.00112674 -0.000389971 -0 0.00112674 -0 0.00112674)
(0.00226535 -0.000978999 -0 0.00226535 -0 0.00226535)
(0.00226513 -0.000978862 -0 0.00226512 -0 0.00226512)
(0.00226525 -0.000978936 -0 0.00226525 -0 0.00226525)
(0.0022655 -0.000979056 -0 0.0022655 -0 0.0022655)
(0.00332879 -0.00154789 -0 0.00332879 -0 0.00332879)
(0.00332863 -0.00154781 -0 0.00332863 -0 0.00332863)
(0.00332883 -0.00154791 -0 0.00332883 -0 0.00332883)
(0.00332911 -0.00154804 -0 0.00332911 -0 0.00332911)
(0.00414457 -0.00192723 -0 0.00414457 -0 0.00414457)
(0.0041445 -0.0019272 -0 0.0041445 -0 0.0041445)
(0.00414477 -0.00192733 -0 0.00414477 -0 0.00414477)
(0.00414503 -0.00192745 -0 0.00414503 -0 0.00414503)
(0.00474328 -0.00220572 -0 0.00474328 -0 0.00474328)
(0.00474326 -0.00220571 -0 0.00474326 -0 0.00474326)
(0.00474358 -0.00220586 -0 0.00474358 -0 0.00474358)
(0.00474378 -0.00220595 -0 0.00474378 -0 0.00474378)
(0.00517059 -0.00240493 -0 0.00517059 -0 0.00517059)
(0.0051706 -0.00240493 -0 0.00517061 -0 0.0051706)
(0.00517096 -0.00240509 -0 0.00517095 -0 0.00517095)
(0.00517106 -0.00240514 -0 0.00517105 -0 0.00517105)
(0.0054702 -0.00254382 -0 0.0054702 -0 0.0054702)
(0.00547024 -0.00254384 -0 0.00547024 -0 0.00547024)
(0.00547058 -0.00254399 -0 0.00547057 -0 0.00547057)
(0.00547058 -0.00254399 -0 0.00547057 -0 0.00547057)
(0.00567633 -0.00263955 -0 0.00567634 -0 0.00567634)
(0.00567642 -0.00263959 -0 0.00567643 -0 0.00567642)
(0.00567673 -0.00263973 -0 0.00567672 -0 0.00567672)
(0.00567663 -0.00263968 -0 0.00567662 -0 0.00567663)
(0.00581363 -0.00270336 -0 0.00581364 -0 0.00581363)
(0.00581373 -0.0027034 -0 0.00581374 -0 0.00581373)
(0.00581401 -0.00270353 -0 0.005814 -0 0.00581401)
(0.0058138 -0.00270343 -0 0.00581379 -0 0.0058138)
(0.00589937 -0.00274321 -0 0.00589938 -0 0.00589937)
(0.00589947 -0.00274326 -0 0.00589948 -0 0.00589948)
(0.00589974 -0.00274338 -0 0.00589973 -0 0.00589973)
(0.00589941 -0.00274323 -0 0.0058994 -0 0.00589941)
(0.00594569 -0.00276475 -0 0.0059457 -0 0.00594569)
(0.00594581 -0.00276481 -0 0.00594582 -0 0.00594582)
(0.00594605 -0.00276491 -0 0.00594604 -0 0.00594605)
(0.00594563 -0.00276472 -0 0.00594562 -0 0.00594562)
(0.00596119 -0.00277196 -0 0.0059612 -0 0.0059612)
(0.00596134 -0.00277202 -0 0.00596135 -0 0.00596134)
(0.00596155 -0.00277212 -0 0.00596154 -0 0.00596154)
(0.00596105 -0.00277188 -0 0.00596103 -0 0.00596104)
(0.00595204 -0.0027677 -0 0.00595205 -0 0.00595204)
(0.00595221 -0.00276778 -0 0.00595222 -0 0.00595222)
(0.00595239 -0.00276786 -0 0.00595238 -0 0.00595238)
(0.00595183 -0.0027676 -0 0.00595182 -0 0.00595182)
(0.00592272 -0.00275407 -0 0.00592273 -0 0.00592272)
(0.00592291 -0.00275415 -0 0.00592292 -0 0.00592291)
(0.00592306 -0.00275422 -0 0.00592305 -0 0.00592305)
(0.00592245 -0.00275394 -0 0.00592245 -0 0.00592245)
(0.00587654 -0.00273259 -0 0.00587655 -0 0.00587655)
(0.00587672 -0.00273267 -0 0.00587672 -0 0.00587672)
(0.00587687 -0.00273274 -0 0.00587686 -0 0.00587686)
(0.00587624 -0.00273245 -0 0.00587623 -0 0.00587623)
(0.00581598 -0.00270443 -0 0.00581599 -0 0.00581599)
(0.00581615 -0.00270451 -0 0.00581615 -0 0.00581615)
(0.00581628 -0.00270457 -0 0.00581627 -0 0.00581628)
(0.00581567 -0.00270428 -0 0.00581567 -0 0.00581567)
(0.00574296 -0.00267048 -0 0.00574298 -0 0.00574297)
(0.0057431 -0.00267054 -0 0.0057431 -0 0.0057431)
(0.00574323 -0.0026706 -0 0.00574321 -0 0.00574322)
(0.00574264 -0.00267033 -0 0.00574265 -0 0.00574264)
(0.00565897 -0.00263142 -0 0.00565898 -0 0.00565898)
(0.0056591 -0.00263148 -0 0.0056591 -0 0.0056591)
(0.00565919 -0.00263152 -0 0.00565918 -0 0.00565919)
(0.00565868 -0.00263128 -0 0.00565868 -0 0.00565868)
(0.00556525 -0.00258784 -0 0.00556526 -0 0.00556526)
(0.00556538 -0.0025879 -0 0.00556538 -0 0.00556538)
(0.00556543 -0.00258792 -0 0.00556542 -0 0.00556542)
(0.005565 -0.00258772 -0 0.005565 -0 0.005565)
(0.00546291 -0.00254026 -0 0.00546293 -0 0.00546292)
(0.00546303 -0.00254031 -0 0.00546303 -0 0.00546303)
(0.00546304 -0.00254031 -0 0.00546303 -0 0.00546304)
(0.0054627 -0.00254015 -0 0.0054627 -0 0.0054627)
(0.00535299 -0.00248914 -0 0.00535301 -0 0.005353)
(0.00535308 -0.00248918 -0 0.00535308 -0 0.00535308)
(0.00535307 -0.00248918 -0 0.00535306 -0 0.00535307)
(0.0053528 -0.00248905 -0 0.00535281 -0 0.0053528)
(0.00523652 -0.00243499 -0 0.00523654 -0 0.00523653)
(0.00523658 -0.00243501 -0 0.00523658 -0 0.00523658)
(0.00523657 -0.002435 -0 0.00523655 -0 0.00523656)
(0.00523636 -0.00243491 -0 0.00523637 -0 0.00523637)
(0.00511457 -0.00237828 -0 0.00511458 -0 0.00511457)
(0.0051146 -0.00237829 -0 0.00511459 -0 0.00511459)
(0.00511459 -0.00237828 -0 0.00511457 -0 0.00511458)
(0.00511443 -0.00237821 -0 0.00511445 -0 0.00511444)
(0.00498806 -0.00231945 -0 0.00498806 -0 0.00498806)
(0.00498809 -0.00231946 -0 0.00498806 -0 0.00498808)
(0.00498807 -0.00231945 -0 0.00498806 -0 0.00498806)
(0.00498795 -0.0023194 -0 0.00498798 -0 0.00498797)
(0.00485753 -0.00225555 -0 0.00485752 -0 0.00485752)
(0.00485756 -0.00225543 -0 0.00485752 -0 0.00485754)
(0.00485752 -0.00225533 -0 0.00485753 -0 0.00485752)
(0.00485744 -0.0022556 -0 0.00485748 -0 0.00485746)
(0.00472298 -0.00218452 -0 0.00472296 -0 0.00472297)
(0.00472302 -0.00218454 -0 0.00472299 -0 0.004723)
(0.00472295 -0.00218447 -0 0.00472298 -0 0.00472297)
(0.00472293 -0.0021849 -0 0.00472296 -0 0.00472294)
(0.00458449 -0.00211305 -0 0.00458447 -0 0.00458448)
(0.00458452 -0.00211304 -0 0.00458449 -0 0.0045845)
(0.00458443 -0.00211305 -0 0.00458446 -0 0.00458444)
(0.00458448 -0.0021136 -0 0.00458451 -0 0.00458449)
(0.00444228 -0.00203859 -0 0.00444225 -0 0.00444226)
(0.00444229 -0.00203883 -0 0.00444226 -0 0.00444228)
(0.0044422 -0.0020387 -0 0.00444223 -0 0.00444221)
(0.00444227 -0.0020395 -0 0.0044423 -0 0.00444229)
(0.0042966 -0.00196146 -0 0.00429658 -0 0.00429659)
(0.00429661 -0.00196155 -0 0.00429658 -0 0.0042966)
(0.00429652 -0.0019616 -0 0.00429654 -0 0.00429653)
(0.00429661 -0.00196254 -0 0.00429664 -0 0.00429663)
(0.00414776 -0.00188123 -0 0.00414774 -0 0.00414775)
(0.00414777 -0.00188175 -0 0.00414774 -0 0.00414776)
(0.00414766 -0.0018814 -0 0.00414768 -0 0.00414767)
(0.00414779 -0.00188278 -0 0.00414781 -0 0.0041478)
(0.00399608 -0.0017983 -0 0.00399607 -0 0.00399608)
(0.00399611 -0.00179888 -0 0.00399608 -0 0.0039961)
(0.00399599 -0.00179852 -0 0.003996 -0 0.00399599)
(0.00399614 -0.00180009 -0 0.00399616 -0 0.00399615)
(0.003842 -0.00171248 -0 0.00384199 -0 0.00384199)
(0.00384202 -0.00171319 -0 0.003842 -0 0.00384201)
(0.00384189 -0.00171273 -0 0.0038419 -0 0.0038419)
(0.00384206 -0.00171452 -0 0.00384208 -0 0.00384207)
(0.00368598 -0.0016238 -0 0.00368597 -0 0.00368597)
(0.003686 -0.00162462 -0 0.00368598 -0 0.00368599)
(0.00368586 -0.00162405 -0 0.00368587 -0 0.00368586)
(0.00368604 -0.00162605 -0 0.00368605 -0 0.00368605)
(0.00352861 -0.00153224 -0 0.00352861 -0 0.00352861)
(0.00352861 -0.00153314 -0 0.00352861 -0 0.00352861)
(0.00352846 -0.00153248 -0 0.00352847 -0 0.00352847)
(0.00352866 -0.00153463 -0 0.00352866 -0 0.00352866)
(0.0033706 -0.00143781 -0 0.0033706 -0 0.0033706)
(0.00337056 -0.00143872 -0 0.00337057 -0 0.00337057)
(0.0033704 -0.00143798 -0 0.0033704 -0 0.0033704)
(0.00337062 -0.00144022 -0 0.00337061 -0 0.00337061)
(0.00321273 -0.00134044 -0 0.00321272 -0 0.00321273)
(0.0032127 -0.00134133 -0 0.00321272 -0 0.00321271)
(0.00321253 -0.00134074 -0 0.00321254 -0 0.00321253)
(0.00321276 -0.00134268 -0 0.00321274 -0 0.00321275)
(0.00305601 -0.00124006 -0 0.003056 -0 0.003056)
(0.00305604 -0.0012409 -0 0.00305604 -0 0.00305604)
(0.00305588 -0.00124052 -0 0.00305589 -0 0.00305588)
(0.00305608 -0.00124219 -0 0.00305607 -0 0.00305608)
(0.00290177 -0.00113704 -0 0.00290176 -0 0.00290176)
(0.0029018 -0.00113733 -0 0.00290181 -0 0.0029018)
(0.00290165 -0.00113719 -0 0.00290166 -0 0.00290165)
(0.00290185 -0.0011387 -0 0.00290184 -0 0.00290184)
(0.00275143 -0.00103037 -0 0.00275142 -0 0.00275142)
(0.0027515 -0.00103093 -0 0.00275152 -0 0.00275151)
(0.0027513 -0.00103076 -0 0.00275132 -0 0.00275131)
(0.00275155 -0.00103213 -0 0.00275153 -0 0.00275154)
(0.00260672 -0.000920784 -0 0.00260671 -0 0.00260672)
(0.00260682 -0.000921376 -0 0.00260684 -0 0.00260683)
(0.0026066 -0.000921246 -0 0.00260662 -0 0.00260661)
(0.00260685 -0.000922484 -0 0.00260683 -0 0.00260684)
(0.00246974 -0.000808104 -0 0.00246973 -0 0.00246974)
(0.00246982 -0.000808739 -0 0.00246984 -0 0.00246983)
(0.00246962 -0.000808694 -0 0.00246964 -0 0.00246963)
(0.00246984 -0.000809734 -0 0.00246983 -0 0.00246983)
(0.00234298 -0.000692418 -0 0.00234297 -0 0.00234297)
(0.00234296 -0.00069288 -0 0.00234296 -0 0.00234296)
(0.00234284 -0.000692954 -0 0.00234285 -0 0.00234285)
(0.00234297 -0.000693836 -0 0.00234297 -0 0.00234297)
(0.00222912 -0.000573452 -0 0.00222911 -0 0.00222911)
(0.0022291 -0.00057391 -0 0.00222911 -0 0.00222911)
(0.00222904 -0.000573925 -0 0.00222904 -0 0.00222904)
(0.00222915 -0.000574839 -0 0.00222915 -0 0.00222915)
(0.00213145 -0.000451365 -0 0.00213145 -0 0.00213145)
(0.00213142 -0.000451738 -0 0.00213143 -0 0.00213143)
(0.00213138 -0.000451802 -0 0.00213138 -0 0.00213138)
(0.0021315 -0.000452575 -0 0.00213149 -0 0.00213149)
(0.00205334 -0.000326042 -0 0.00205335 -0 0.00205334)
(0.0020533 -0.000326333 -0 0.00205332 -0 0.00205331)
(0.00205326 -0.00032639 -0 0.00205326 -0 0.00205326)
(0.00205339 -0.000326984 -0 0.00205337 -0 0.00205338)
(0.00199824 -0.000197343 -0 0.00199825 -0 0.00199824)
(0.00199817 -0.000197548 -0 0.00199819 -0 0.00199818)
(0.00199814 -0.000197577 -0 0.00199812 -0 0.00199813)
(0.00199826 -0.000197953 -0 0.00199824 -0 0.00199825)
(0.00196939 -6.60871e-05 -0 0.00196942 -0 0.00196941)
(0.00196925 -6.61975e-05 -0 0.00196927 -0 0.00196926)
(0.00196922 -6.62071e-05 -0 0.00196919 -0 0.00196921)
(0.00196934 -6.63374e-05 -0 0.00196932 -0 0.00196933)
)
;

boundaryField
{
    inlet
    {
        type            cyclic;
    }
    outlet
    {
        type            cyclic;
    }
    fixedWalls-bottom
    {
        type            kqRWallFunction;
        value           nonuniform List<symmTensor> 4((1.5863e-06 -0 -0 1.5863e-06 -0 1.5863e-06) (1.58603e-06 -0 -0 1.58603e-06 -0 1.58603e-06) (1.58607e-06 -0 -0 1.58607e-06 -0 1.58607e-06) (1.58628e-06 -0 -0 1.58628e-06 -0 1.58628e-06));
    }
    fixedWalls-top
    {
        type            symmetry;
    }
    frontAndBack
    {
        type            empty;
    }
}


// ************************************************************************* //
