/*--------------------------------*- C++ -*----------------------------------*\
  =========                 |
  \\      /  F ield         | OpenFOAM: The Open Source CFD Toolbox
   \\    /   O peration     | Website:  https://openfoam.org
    \\  /    A nd           | Version:  10
     \\/     M anipulation  |
\*---------------------------------------------------------------------------*/
FoamFile
{
    format      ascii;
    class       volVectorField;
    location    "424";
    object      U;
}
// * * * * * * * * * * * * * * * * * * * * * * * * * * * * * * * * * * * * * //

dimensions      [0 1 -1 0 0 0 0];

internalField   nonuniform List<vector> 
200
(
(0.0523822 -1.26945e-09 0)
(0.0523816 1.24623e-09 0)
(0.0523814 6.42108e-10 0)
(0.0523819 -1.20234e-09 0)
(0.157621 3.6113e-09 0)
(0.15762 1.64129e-08 0)
(0.157619 -3.31149e-09 0)
(0.157621 -1.63224e-08 0)
(0.263852 1.87845e-08 0)
(0.263849 4.60761e-08 0)
(0.263849 -1.90209e-08 0)
(0.263852 -4.59048e-08 0)
(0.366162 4.85485e-08 0)
(0.366159 8.06166e-08 0)
(0.366159 -4.87148e-08 0)
(0.366162 -8.03924e-08 0)
(0.456121 8.37144e-08 0)
(0.456119 1.06913e-07 0)
(0.45612 -8.39157e-08 0)
(0.456123 -1.06649e-07 0)
(0.53003 1.18985e-07 0)
(0.530029 1.17564e-07 0)
(0.53003 -1.19223e-07 0)
(0.530032 -1.17283e-07 0)
(0.590533 1.42556e-07 0)
(0.590533 1.13734e-07 0)
(0.590534 -1.42831e-07 0)
(0.590534 -1.13445e-07 0)
(0.640989 1.52965e-07 0)
(0.640989 1.02023e-07 0)
(0.64099 -1.53261e-07 0)
(0.640989 -1.01732e-07 0)
(0.683703 1.50298e-07 0)
(0.683704 8.55224e-08 0)
(0.683705 -1.50613e-07 0)
(0.683703 -8.52299e-08 0)
(0.72044 1.36935e-07 0)
(0.720441 6.53558e-08 0)
(0.720442 -1.37257e-07 0)
(0.720439 -6.50656e-08 0)
(0.752518 1.16418e-07 0)
(0.752519 4.26215e-08 0)
(0.75252 -1.16748e-07 0)
(0.752517 -4.23331e-08 0)
(0.780912 9.2074e-08 0)
(0.780913 1.82925e-08 0)
(0.780914 -9.24052e-08 0)
(0.780911 -1.80084e-08 0)
(0.806349 6.63155e-08 0)
(0.80635 -6.24488e-09 0)
(0.80635 -6.66502e-08 0)
(0.806348 6.52662e-09 0)
(0.829376 4.06357e-08 0)
(0.829377 -2.98739e-08 0)
(0.829378 -4.09695e-08 0)
(0.829375 3.01517e-08 0)
(0.850413 1.57999e-08 0)
(0.850414 -5.14444e-08 0)
(0.850415 -1.61338e-08 0)
(0.850413 5.17195e-08 0)
(0.869787 -7.83637e-09 0)
(0.869788 -6.96097e-08 0)
(0.869788 7.50544e-09 0)
(0.869787 6.98809e-08 0)
(0.887754 -3.01983e-08 0)
(0.887755 -8.3235e-08 0)
(0.887755 2.98681e-08 0)
(0.887753 8.35037e-08 0)
(0.904519 -5.14843e-08 0)
(0.904519 -9.16106e-08 0)
(0.904519 5.11571e-08 0)
(0.904518 9.1876e-08 0)
(0.920247 -7.178e-08 0)
(0.920248 -9.48897e-08 0)
(0.920247 7.14547e-08 0)
(0.920246 9.51524e-08 0)
(0.935073 -9.14225e-08 0)
(0.935074 -9.40945e-08 0)
(0.935073 9.11012e-08 0)
(0.935073 9.4354e-08 0)
(0.949107 -1.1031e-07 0)
(0.949107 -9.08007e-08 0)
(0.949107 1.09992e-07 0)
(0.949106 9.10572e-08 0)
(0.962436 -1.28438e-07 0)
(0.962437 -8.69869e-08 0)
(0.962436 1.28124e-07 0)
(0.962436 8.724e-08 0)
(0.975132 -1.46586e-07 0)
(0.975132 -8.44761e-08 0)
(0.975131 1.46276e-07 0)
(0.975131 8.47259e-08 0)
(0.987246 -1.66292e-07 0)
(0.987247 -8.3363e-08 0)
(0.987246 1.65986e-07 0)
(0.987245 8.36093e-08 0)
(0.998821 -1.88574e-07 0)
(0.998821 -8.00748e-08 0)
(0.99882 1.88273e-07 0)
(0.99882 8.03164e-08 0)
(1.00989 -2.10348e-07 0)
(1.00989 -6.68375e-08 0)
(1.00989 2.10053e-07 0)
(1.00989 6.70753e-08 0)
(1.02048 -2.22829e-07 0)
(1.02048 -3.80909e-08 0)
(1.02048 2.2254e-07 0)
(1.02048 3.83231e-08 0)
(1.03065 -2.2185e-07 0)
(1.03065 -3.46437e-09 0)
(1.03065 2.21568e-07 0)
(1.03065 3.69086e-09 0)
(1.04046 -2.04265e-07 0)
(1.04046 3.76771e-08 0)
(1.04046 2.0399e-07 0)
(1.04046 -3.74578e-08 0)
(1.04996 -1.76595e-07 0)
(1.04996 7.18082e-08 0)
(1.04996 1.76328e-07 0)
(1.04997 -7.15952e-08 0)
(1.05917 -1.44442e-07 0)
(1.05917 1.06754e-07 0)
(1.05917 1.44185e-07 0)
(1.05917 -1.0655e-07 0)
(1.06808 -1.20031e-07 0)
(1.06809 1.41141e-07 0)
(1.06808 1.19783e-07 0)
(1.06809 -1.40944e-07 0)
(1.07673 -9.55954e-08 0)
(1.07673 1.75437e-07 0)
(1.07672 9.5359e-08 0)
(1.07673 -1.7525e-07 0)
(1.08509 -7.95745e-08 0)
(1.08509 2.06158e-07 0)
(1.08509 7.93478e-08 0)
(1.0851 -2.0598e-07 0)
(1.09319 -6.54187e-08 0)
(1.09319 2.32701e-07 0)
(1.09319 6.5205e-08 0)
(1.09319 -2.32536e-07 0)
(1.10101 -5.47726e-08 0)
(1.10101 2.53765e-07 0)
(1.10101 5.45676e-08 0)
(1.10102 -2.53608e-07 0)
(1.10856 -4.8324e-08 0)
(1.10856 2.62518e-07 0)
(1.10856 4.81334e-08 0)
(1.10856 -2.62375e-07 0)
(1.11581 -4.55344e-08 0)
(1.11581 2.5135e-07 0)
(1.11581 4.53534e-08 0)
(1.11581 -2.51218e-07 0)
(1.12276 -4.11054e-08 0)
(1.12276 2.3397e-07 0)
(1.12276 4.09418e-08 0)
(1.12276 -2.3385e-07 0)
(1.12939 -3.66499e-08 0)
(1.12939 2.22727e-07 0)
(1.12939 3.65009e-08 0)
(1.12939 -2.2261e-07 0)
(1.13567 -3.13845e-08 0)
(1.13567 2.01595e-07 0)
(1.13567 3.12527e-08 0)
(1.13567 -2.015e-07 0)
(1.14158 -1.32929e-08 0)
(1.14158 1.87651e-07 0)
(1.14158 1.31751e-08 0)
(1.14158 -1.87561e-07 0)
(1.14708 9.86694e-09 0)
(1.14708 1.54754e-07 0)
(1.14708 -9.97054e-09 0)
(1.14708 -1.54676e-07 0)
(1.15212 3.66411e-08 0)
(1.15212 1.31516e-07 0)
(1.15212 -3.67234e-08 0)
(1.15212 -1.31447e-07 0)
(1.15666 5.70471e-08 0)
(1.15666 1.21841e-07 0)
(1.15666 -5.71137e-08 0)
(1.15666 -1.2178e-07 0)
(1.16064 6.87855e-08 0)
(1.16064 1.2082e-07 0)
(1.16064 -6.88326e-08 0)
(1.16064 -1.20773e-07 0)
(1.16397 7.28251e-08 0)
(1.16397 1.14413e-07 0)
(1.16398 -7.28604e-08 0)
(1.16397 -1.14372e-07 0)
(1.1666 7.04823e-08 0)
(1.1666 9.03036e-08 0)
(1.1666 -7.04974e-08 0)
(1.1666 -9.02807e-08 0)
(1.16844 5.83495e-08 0)
(1.16844 5.45081e-08 0)
(1.16844 -5.8376e-08 0)
(1.16844 -5.45292e-08 0)
(1.16939 2.30568e-08 0)
(1.16939 1.92542e-08 0)
(1.16939 -2.30358e-08 0)
(1.16939 -1.9228e-08 0)
)
;

boundaryField
{
    inlet
    {
        type            cyclic;
    }
    outlet
    {
        type            cyclic;
    }
    fixedWalls-bottom
    {
        type            noSlip;
    }
    fixedWalls-top
    {
        type            symmetry;
    }
    frontAndBack
    {
        type            empty;
    }
}


// ************************************************************************* //
