# Residuals   
# Time        	p             	Ux            	Uy            
0             	N/A	N/A
1             	9.999963e-01	0.000000e+00	0.000000e+00
2             	1.000000e+00	9.949588e-01	1.000000e+00
3             	2.566097e-01	1.641897e-01	6.598639e-01
4             	1.723052e-01	7.032219e-02	4.535957e-01
5             	2.545732e-01	1.001959e-01	6.930053e-01
6             	4.955887e-01	1.370410e-01	6.892823e-01
7             	5.019231e-01	1.724691e-01	5.952735e-01
8             	4.096093e-01	1.667886e-01	5.467736e-01
9             	3.936762e-01	9.813674e-02	5.752718e-01
10            	3.357290e-01	6.949638e-02	6.289166e-01
11            	2.549202e-01	6.385324e-02	4.562768e-01
12            	2.128642e-01	4.944544e-02	4.221067e-01
13            	2.822718e-01	3.854073e-02	3.394642e-01
14            	2.629630e-01	3.430154e-02	4.419621e-01
15            	1.651800e-01	3.096723e-02	4.931169e-01
16            	9.610271e-02	2.784328e-02	3.784594e-01
17            	1.580876e-01	2.620383e-02	3.846621e-01
18            	2.354776e-01	2.363531e-02	4.195224e-01
19            	1.983349e-01	2.166410e-02	5.363456e-01
20            	8.438312e-02	2.046447e-02	4.399754e-01
21            	6.091626e-02	1.580144e-02	3.424063e-01
22            	9.025624e-02	1.367632e-02	3.506978e-01
23            	1.192513e-01	1.230168e-02	2.909953e-01
24            	1.305856e-01	1.153031e-02	2.921867e-01
25            	1.805504e-01	1.099688e-02	3.331901e-01
26            	8.615736e-02	1.066263e-02	3.497476e-01
27            	2.820634e-02	1.041201e-02	3.220295e-01
28            	2.169339e-02	1.014245e-02	2.748336e-01
29            	1.872752e-02	9.941363e-03	2.450242e-01
30            	1.418059e-02	9.737223e-03	2.197226e-01
31            	1.524093e-02	9.483582e-03	1.938291e-01
32            	1.434010e-02	9.270691e-03	1.672351e-01
33            	2.064552e-02	9.004517e-03	1.456543e-01
34            	1.948774e-02	8.743842e-03	1.208818e-01
35            	3.441738e-02	8.443743e-03	9.572566e-02
36            	3.630521e-02	8.178644e-03	7.495157e-02
37            	1.259335e-02	7.908440e-03	5.855393e-02
38            	6.908188e-03	7.655306e-03	4.826220e-02
39            	4.457131e-03	7.431102e-03	4.050606e-02
40            	3.203408e-03	7.125218e-03	3.369813e-02
41            	2.446156e-03	6.833181e-03	2.879381e-02
42            	1.798011e-03	6.570297e-03	2.496700e-02
43            	1.365545e-03	6.337423e-03	2.278531e-02
44            	1.105682e-03	6.130470e-03	2.135573e-02
45            	9.155368e-04	5.950364e-03	2.107566e-02
46            	8.046692e-04	5.793326e-03	2.201390e-02
47            	7.223368e-04	5.658462e-03	2.266861e-02
48            	6.406146e-04	5.535601e-03	2.259551e-02
49            	5.878973e-04	5.425403e-03	2.237638e-02
50            	5.027438e-04	5.323795e-03	2.181301e-02
51            	4.351173e-04	5.234170e-03	2.082047e-02
52            	3.903363e-04	5.149598e-03	1.990324e-02
53            	3.873010e-04	5.074434e-03	1.969246e-02
54            	3.774694e-04	5.001793e-03	1.999748e-02
55            	3.548044e-04	4.935062e-03	2.010124e-02
56            	3.498474e-04	4.871184e-03	2.011857e-02
57            	3.520086e-04	4.812983e-03	2.036173e-02
58            	3.375691e-04	4.758274e-03	2.062261e-02
59            	3.225462e-04	4.705790e-03	2.086576e-02
60            	3.206854e-04	4.656939e-03	2.090785e-02
61            	3.154705e-04	4.607293e-03	2.097236e-02
62            	3.234445e-04	4.562511e-03	2.099829e-02
63            	3.133860e-04	4.516786e-03	2.111542e-02
64            	3.088145e-04	4.476244e-03	2.135648e-02
65            	3.048012e-04	4.433686e-03	2.168977e-02
66            	2.971742e-04	4.396832e-03	2.206891e-02
67            	2.881466e-04	4.356373e-03	2.225502e-02
68            	2.859080e-04	4.320483e-03	2.237902e-02
69            	2.825535e-04	4.281614e-03	2.224178e-02
70            	2.957091e-04	4.246340e-03	2.215685e-02
71            	2.940234e-04	4.210544e-03	2.225564e-02
72            	2.930357e-04	4.175747e-03	2.250292e-02
73            	2.865379e-04	4.141288e-03	2.263016e-02
74            	2.743930e-04	4.106859e-03	2.269233e-02
75            	2.616215e-04	4.074351e-03	2.271168e-02
76            	2.612060e-04	4.040837e-03	2.274487e-02
77            	2.809939e-04	4.009380e-03	2.279525e-02
78            	2.691546e-04	3.978220e-03	2.282581e-02
79            	2.587868e-04	3.947209e-03	2.286918e-02
80            	2.483206e-04	3.917599e-03	2.296708e-02
81            	2.418613e-04	3.888091e-03	2.306158e-02
82            	2.331713e-04	3.857578e-03	2.296924e-02
83            	2.248141e-04	3.826392e-03	2.309248e-02
84            	2.404162e-04	3.795777e-03	2.294349e-02
85            	2.260209e-04	3.766122e-03	2.277097e-02
86            	2.214625e-04	3.737128e-03	2.281932e-02
87            	2.220904e-04	3.708074e-03	2.306806e-02
88            	2.087459e-04	3.679045e-03	2.310812e-02
89            	2.107089e-04	3.650468e-03	2.304452e-02
90            	2.341612e-04	3.622323e-03	2.314615e-02
91            	2.346953e-04	3.594391e-03	2.297591e-02
92            	2.172861e-04	3.566920e-03	2.284442e-02
93            	2.199500e-04	3.539684e-03	2.282194e-02
94            	2.127996e-04	3.512454e-03	2.281448e-02
95            	2.074071e-04	3.486004e-03	2.285667e-02
96            	2.016627e-04	3.459809e-03	2.268471e-02
97            	2.285117e-04	3.434310e-03	2.274730e-02
98            	2.346989e-04	3.410087e-03	2.257239e-02
99            	2.313189e-04	3.385209e-03	2.314045e-02
100           	2.148686e-04	3.361735e-03	2.359196e-02
101           	2.012825e-04	3.338091e-03	2.391828e-02
102           	2.009501e-04	3.314898e-03	2.384424e-02
103           	2.578668e-04	3.292375e-03	2.363413e-02
104           	2.374502e-04	3.270800e-03	2.308039e-02
105           	2.275752e-04	3.249689e-03	2.302990e-02
106           	2.259540e-04	3.229191e-03	2.298308e-02
107           	2.127919e-04	3.209313e-03	2.284166e-02
108           	2.078510e-04	3.190039e-03	2.249752e-02
109           	2.593039e-04	3.171546e-03	2.255051e-02
110           	2.527115e-04	3.154251e-03	2.231316e-02
111           	2.284005e-04	3.137542e-03	2.201438e-02
112           	2.259155e-04	3.121211e-03	2.166841e-02
113           	2.229449e-04	3.105448e-03	2.162546e-02
114           	1.902083e-04	3.090296e-03	2.131576e-02
115           	2.594480e-04	3.075834e-03	2.128581e-02
116           	2.579367e-04	3.062079e-03	2.145666e-02
117           	2.367338e-04	3.048862e-03	2.129219e-02
118           	2.251800e-04	3.036018e-03	2.105198e-02
119           	2.120342e-04	3.023424e-03	2.100559e-02
120           	2.072362e-04	3.011205e-03	2.064159e-02
121           	2.529395e-04	2.999296e-03	2.028585e-02
122           	2.481743e-04	2.987993e-03	2.042909e-02
123           	2.360386e-04	2.976824e-03	2.080147e-02
124           	2.333505e-04	2.965747e-03	2.068181e-02
125           	2.343400e-04	2.954895e-03	2.013211e-02
126           	1.989920e-04	2.944616e-03	2.008457e-02
127           	1.966593e-04	2.934458e-03	2.001488e-02
128           	2.949134e-04	2.924701e-03	2.015164e-02
129           	2.620427e-04	2.915267e-03	2.018124e-02
130           	2.445620e-04	2.906065e-03	1.974386e-02
131           	2.330068e-04	2.896969e-03	1.977339e-02
132           	2.339679e-04	2.888179e-03	1.984107e-02
133           	2.095692e-04	2.879629e-03	1.949938e-02
134           	2.811237e-04	2.871317e-03	1.945619e-02
135           	2.820584e-04	2.863291e-03	1.983464e-02
136           	2.892082e-04	2.855469e-03	2.008177e-02
137           	2.544094e-04	2.847724e-03	1.962310e-02
138           	2.340126e-04	2.840147e-03	1.916590e-02
139           	2.277803e-04	2.832578e-03	1.938965e-02
140           	2.359270e-04	2.825218e-03	1.929734e-02
141           	3.294856e-04	2.818414e-03	1.908057e-02
142           	2.954266e-04	2.811955e-03	1.947872e-02
143           	2.888503e-04	2.805517e-03	1.970305e-02
144           	2.808804e-04	2.799294e-03	1.936150e-02
145           	2.576887e-04	2.793220e-03	1.926364e-02
146           	2.482999e-04	2.787150e-03	1.913290e-02
147           	2.435649e-04	2.781181e-03	1.922671e-02
148           	4.123891e-04	2.775476e-03	1.917167e-02
149           	3.504338e-04	2.770001e-03	1.920515e-02
150           	3.175277e-04	2.764650e-03	1.883208e-02
151           	2.869545e-04	2.759287e-03	1.910208e-02
152           	2.840995e-04	2.754269e-03	1.899388e-02
153           	2.856786e-04	2.749578e-03	1.851540e-02
154           	2.356234e-04	2.744927e-03	1.821962e-02
155           	3.959452e-04	2.740389e-03	1.881742e-02
156           	3.760464e-04	2.735948e-03	1.904370e-02
157           	3.505278e-04	2.731596e-03	1.880147e-02
158           	3.054754e-04	2.727283e-03	1.831669e-02
159           	2.829534e-04	2.722914e-03	1.825525e-02
160           	2.784632e-04	2.718554e-03	1.823759e-02
161           	2.660091e-04	2.714238e-03	1.772216e-02
162           	4.363304e-04	2.710578e-03	1.762303e-02
163           	3.951459e-04	2.707173e-03	1.796770e-02
164           	3.959745e-04	2.703826e-03	1.810455e-02
165           	3.526287e-04	2.700493e-03	1.772670e-02
166           	3.119679e-04	2.697145e-03	1.729638e-02
167           	3.098413e-04	2.693769e-03	1.695706e-02
168           	2.981745e-04	2.690406e-03	1.689848e-02
169           	4.898298e-04	2.687192e-03	1.676227e-02
170           	4.352221e-04	2.684094e-03	1.682563e-02
171           	4.182632e-04	2.681010e-03	1.670245e-02
172           	3.753134e-04	2.678526e-03	1.658045e-02
173           	3.385011e-04	2.676016e-03	1.598203e-02
174           	3.425408e-04	2.673471e-03	1.544860e-02
175           	2.906090e-04	2.670868e-03	1.550840e-02
176           	5.169468e-04	2.668357e-03	1.550709e-02
177           	4.625750e-04	2.665921e-03	1.534066e-02
178           	4.101545e-04	2.663317e-03	1.528755e-02
179           	4.100211e-04	2.660519e-03	1.500861e-02
180           	3.549469e-04	2.658215e-03	1.430103e-02
181           	3.103678e-04	2.656337e-03	1.397148e-02
182           	2.939586e-04	2.654413e-03	1.380700e-02
183           	5.570117e-04	2.652578e-03	1.388299e-02
184           	4.720467e-04	2.650832e-03	1.379871e-02
185           	4.517621e-04	2.648992e-03	1.345076e-02
186           	3.842848e-04	2.646905e-03	1.307999e-02
187           	3.794002e-04	2.644760e-03	1.316265e-02
188           	3.290905e-04	2.642608e-03	1.272850e-02
189           	3.363222e-04	2.641225e-03	1.230517e-02
190           	5.345553e-04	2.640012e-03	1.203685e-02
191           	4.747649e-04	2.638926e-03	1.245591e-02
192           	4.920574e-04	2.637775e-03	1.233120e-02
193           	4.139540e-04	2.636380e-03	1.173499e-02
194           	3.540849e-04	2.634885e-03	1.144625e-02
195           	3.090554e-04	2.633376e-03	1.109469e-02
196           	4.423271e-04	2.631892e-03	1.106309e-02
197           	5.933722e-04	2.630523e-03	1.071197e-02
198           	5.508542e-04	2.629938e-03	1.091317e-02
199           	5.162263e-04	2.629497e-03	1.090911e-02
200           	4.914659e-04	2.628772e-03	1.056443e-02
201           	4.252845e-04	2.627938e-03	1.017722e-02
202           	3.807427e-04	2.627055e-03	1.011136e-02
203           	3.359004e-04	2.626164e-03	9.894939e-03
204           	3.626235e-04	2.625307e-03	9.724994e-03
205           	5.725486e-04	2.624572e-03	9.500061e-03
206           	4.882735e-04	2.623671e-03	9.649379e-03
207           	4.386003e-04	2.623501e-03	9.606651e-03
208           	4.304168e-04	2.623164e-03	9.441851e-03
209           	3.685152e-04	2.622786e-03	9.159230e-03
210           	3.308181e-04	2.622404e-03	9.141306e-03
211           	3.219520e-04	2.622061e-03	8.940547e-03
212           	7.808208e-04	2.621871e-03	8.932623e-03
213           	6.109515e-04	2.621005e-03	8.738676e-03
214           	5.671898e-04	2.620503e-03	9.016127e-03
215           	5.441737e-04	2.620795e-03	9.059662e-03
216           	5.067618e-04	2.621017e-03	8.816954e-03
217           	4.203717e-04	2.621246e-03	8.547145e-03
218           	3.798865e-04	2.621486e-03	8.601588e-03
219           	6.111673e-04	2.621815e-03	8.584441e-03
220           	5.357374e-04	2.621663e-03	8.484415e-03
221           	4.517327e-04	2.620881e-03	8.548856e-03
222           	4.227997e-04	2.620746e-03	8.672567e-03
223           	6.866716e-04	2.621538e-03	9.020756e-03
224           	6.012909e-04	2.622334e-03	8.799124e-03
225           	5.210374e-04	2.623157e-03	8.712939e-03
226           	6.891042e-04	2.624027e-03	8.739724e-03
227           	6.278971e-04	2.624586e-03	8.816864e-03
228           	5.721809e-04	2.624351e-03	8.882774e-03
229           	4.847921e-04	2.624255e-03	8.850568e-03
230           	4.400587e-04	2.624436e-03	8.915217e-03
231           	4.679623e-04	2.625683e-03	8.946841e-03
232           	7.201023e-04	2.627013e-03	9.104079e-03
233           	7.924372e-04	2.628447e-03	9.018905e-03
234           	7.007576e-04	2.629586e-03	9.147607e-03
235           	6.903899e-04	2.629884e-03	9.312749e-03
236           	6.094852e-04	2.630303e-03	9.203666e-03
237           	5.108817e-04	2.630943e-03	9.148387e-03
238           	4.650646e-04	2.631754e-03	9.220400e-03
239           	4.881850e-04	2.633064e-03	9.322564e-03
240           	1.007118e-03	2.634933e-03	9.561366e-03
241           	8.327267e-04	2.636533e-03	9.500415e-03
242           	7.693152e-04	2.637341e-03	9.650759e-03
243           	7.310629e-04	2.638277e-03	9.722297e-03
244           	6.395363e-04	2.639428e-03	9.619939e-03
245           	5.463902e-04	2.640776e-03	9.550437e-03
246           	5.003433e-04	2.642270e-03	9.642581e-03
247           	7.719039e-04	2.643464e-03	9.756675e-03
248           	1.095039e-03	2.645226e-03	1.003484e-02
249           	9.300841e-04	2.646509e-03	9.965132e-03
250           	8.456123e-04	2.647944e-03	1.008236e-02
251           	8.108752e-04	2.649572e-03	1.021816e-02
252           	7.090467e-04	2.651385e-03	1.017380e-02
253           	6.040855e-04	2.653362e-03	1.013222e-02
254           	8.401707e-04	2.653564e-03	1.022076e-02
255           	7.456819e-04	2.655365e-03	1.028296e-02
256           	1.189191e-03	2.657035e-03	1.066613e-02
257           	1.056089e-03	2.658972e-03	1.049641e-02
258           	9.508875e-04	2.661122e-03	1.064112e-02
259           	9.001171e-04	2.663447e-03	1.075857e-02
260           	1.106228e-03	2.664218e-03	1.075836e-02
261           	8.999236e-04	2.664808e-03	1.073684e-02
262           	8.409817e-04	2.666842e-03	1.085971e-02
263           	7.892464e-04	2.669013e-03	1.093614e-02
264           	1.294671e-03	2.671428e-03	1.125613e-02
265           	1.169490e-03	2.674103e-03	1.106273e-02
266           	1.122879e-03	2.676909e-03	1.124649e-02
267           	1.328867e-03	2.674559e-03	1.135820e-02
268           	1.140583e-03	2.676951e-03	1.139914e-02
269           	1.013361e-03	2.679460e-03	1.143618e-02
270           	9.021277e-04	2.682185e-03	1.150144e-02
271           	8.607628e-04	2.685132e-03	1.162464e-02
272           	1.458953e-03	2.688294e-03	1.198377e-02
273           	1.618247e-03	2.686949e-03	1.175409e-02
274           	1.522088e-03	2.688220e-03	1.194346e-02
275           	1.474637e-03	2.690718e-03	1.207956e-02
276           	1.261159e-03	2.693606e-03	1.206591e-02
277           	1.072459e-03	2.696683e-03	1.208829e-02
278           	9.529936e-04	2.700022e-03	1.220357e-02
279           	1.745323e-03	2.700423e-03	1.249643e-02
280           	1.877537e-03	2.702819e-03	1.259326e-02
281           	1.721668e-03	2.705264e-03	1.248848e-02
282           	1.577086e-03	2.708110e-03	1.261680e-02
283           	1.517069e-03	2.711312e-03	1.274673e-02
284           	1.335111e-03	2.714758e-03	1.279087e-02
285           	1.665058e-03	2.717183e-03	1.279509e-02
286           	2.531339e-03	2.720400e-03	1.326114e-02
287           	2.077058e-03	2.723480e-03	1.306509e-02
288           	1.925685e-03	2.726722e-03	1.310773e-02
289           	1.637680e-03	2.730127e-03	1.313843e-02
290           	1.496608e-03	2.733702e-03	1.325579e-02
291           	1.908956e-03	2.737436e-03	1.333497e-02
292           	2.906276e-03	2.740931e-03	1.360527e-02
293           	2.475941e-03	2.744309e-03	1.324622e-02
294           	2.172530e-03	2.747702e-03	1.324571e-02
295           	3.416686e-03	2.751210e-03	1.357899e-02
296           	2.987323e-03	2.754608e-03	1.345850e-02
297           	4.031085e-03	2.757729e-03	1.365148e-02
298           	3.363514e-03	2.760334e-03	1.351906e-02
299           	2.544295e-03	2.761781e-03	1.335714e-02
300           	2.199215e-03	2.762201e-03	1.335247e-02
301           	2.092945e-03	2.762491e-03	1.343025e-02
302           	2.001948e-03	2.762615e-03	1.345142e-02
303           	1.886087e-03	2.762478e-03	1.338975e-02
304           	1.819052e-03	2.762165e-03	1.340114e-02
305           	1.915732e-03	2.761754e-03	1.341849e-02
306           	2.080975e-03	2.761279e-03	1.339310e-02
307           	2.199287e-03	2.760773e-03	1.331325e-02
308           	2.526210e-03	2.760253e-03	1.328719e-02
309           	2.720153e-03	2.760005e-03	1.325801e-02
310           	3.209793e-03	2.759740e-03	1.325647e-02
311           	3.723226e-03	2.759463e-03	1.317052e-02
312           	5.031547e-03	2.759178e-03	1.312064e-02
313           	8.597415e-03	2.758893e-03	1.301478e-02
314           	5.852235e-03	2.758607e-03	1.290679e-02
315           	3.822281e-03	2.758328e-03	1.282634e-02
316           	2.960420e-03	2.758053e-03	1.274920e-02
317           	2.283207e-03	2.757786e-03	1.265287e-02
318           	1.880467e-03	2.757525e-03	1.255033e-02
319           	1.757228e-03	2.757273e-03	1.246001e-02
320           	1.466567e-03	2.757030e-03	1.226466e-02
321           	1.168692e-03	2.756798e-03	1.212302e-02
322           	1.064306e-03	2.756574e-03	1.203889e-02
323           	9.749900e-04	2.756359e-03	1.192418e-02
324           	8.781169e-04	2.756153e-03	1.174970e-02
325           	8.257152e-04	2.755957e-03	1.159750e-02
326           	7.673655e-04	2.755768e-03	1.139697e-02
327           	6.886466e-04	2.755589e-03	1.126998e-02
328           	6.448838e-04	2.755417e-03	1.116566e-02
329           	6.065631e-04	2.755254e-03	1.107718e-02
330           	5.694188e-04	2.755099e-03	1.095602e-02
331           	5.206709e-04	2.754954e-03	1.083319e-02
332           	5.225959e-04	2.754814e-03	1.073998e-02
333           	4.594821e-04	2.754682e-03	1.059737e-02
334           	4.274287e-04	2.754557e-03	1.040816e-02
335           	4.004199e-04	2.754440e-03	1.021590e-02
336           	3.870306e-04	2.754329e-03	1.004150e-02
337           	3.672443e-04	2.754224e-03	9.884188e-03
338           	3.629033e-04	2.754124e-03	9.702026e-03
339           	3.565194e-04	2.754031e-03	9.515721e-03
340           	3.428757e-04	2.753944e-03	9.309282e-03
341           	3.172823e-04	2.753884e-03	9.129391e-03
342           	3.026160e-04	2.753851e-03	8.939824e-03
343           	3.067366e-04	2.753821e-03	8.777610e-03
344           	2.948425e-04	2.753796e-03	8.616768e-03
345           	2.763004e-04	2.753772e-03	8.431202e-03
346           	2.678803e-04	2.753753e-03	8.257587e-03
347           	2.585733e-04	2.753736e-03	8.071615e-03
348           	2.601710e-04	2.753723e-03	7.905566e-03
349           	2.488044e-04	2.753712e-03	7.736727e-03
350           	2.457638e-04	2.753704e-03	7.566456e-03
351           	2.349705e-04	2.753698e-03	7.410014e-03
352           	2.339582e-04	2.753696e-03	7.240246e-03
353           	2.238441e-04	2.753695e-03	7.083193e-03
354           	2.149745e-04	2.753697e-03	6.914332e-03
355           	2.171564e-04	2.753700e-03	6.771148e-03
356           	2.086576e-04	2.753706e-03	6.607784e-03
357           	2.094460e-04	2.753714e-03	6.463785e-03
358           	2.038867e-04	2.753724e-03	6.308154e-03
359           	2.031862e-04	2.753735e-03	6.149058e-03
360           	1.971979e-04	2.753748e-03	5.990340e-03
361           	1.873824e-04	2.753763e-03	5.822578e-03
362           	1.898832e-04	2.753779e-03	5.661276e-03
363           	1.832344e-04	2.753796e-03	5.497387e-03
364           	1.856797e-04	2.753815e-03	5.347907e-03
365           	1.766334e-04	2.753835e-03	5.187992e-03
366           	1.782258e-04	2.753855e-03	5.044715e-03
367           	1.731675e-04	2.753877e-03	4.901602e-03
368           	1.724185e-04	2.753899e-03	4.759606e-03
369           	1.680562e-04	2.753923e-03	4.630324e-03
370           	1.610116e-04	2.753948e-03	4.499803e-03
371           	1.553769e-04	2.753973e-03	4.379765e-03
372           	1.477672e-04	2.753999e-03	4.280191e-03
373           	1.453221e-04	2.754026e-03	4.189896e-03
374           	1.428921e-04	2.754053e-03	4.092484e-03
375           	1.428098e-04	2.754080e-03	3.988444e-03
376           	1.434905e-04	2.754108e-03	3.878478e-03
377           	1.355103e-04	2.754136e-03	3.761397e-03
378           	1.376906e-04	2.754164e-03	3.657330e-03
379           	1.311340e-04	2.754192e-03	3.550354e-03
380           	1.334830e-04	2.754220e-03	3.452730e-03
381           	1.276546e-04	2.754248e-03	3.350906e-03
382           	1.252040e-04	2.754276e-03	3.252052e-03
383           	1.287874e-04	2.754304e-03	3.156869e-03
384           	1.237400e-04	2.754332e-03	3.060281e-03
385           	1.211771e-04	2.754360e-03	2.965638e-03
386           	1.199973e-04	2.754388e-03	2.873400e-03
387           	1.244518e-04	2.754415e-03	2.784213e-03
388           	1.198130e-04	2.754442e-03	2.694633e-03
389           	1.173201e-04	2.754468e-03	2.608744e-03
390           	1.163006e-04	2.754495e-03	2.529058e-03
391           	1.160945e-04	2.754521e-03	2.450782e-03
392           	1.205389e-04	2.754546e-03	2.377099e-03
393           	1.157702e-04	2.754571e-03	2.299517e-03
394           	1.142161e-04	2.754596e-03	2.227258e-03
395           	1.134850e-04	2.754620e-03	2.157814e-03
396           	1.178127e-04	2.754644e-03	2.093118e-03
397           	1.138114e-04	2.754667e-03	2.026085e-03
398           	1.121974e-04	2.754689e-03	1.963361e-03
399           	1.155484e-04	2.754711e-03	1.901853e-03
400           	1.113002e-04	2.754732e-03	1.841214e-03
401           	1.110894e-04	2.754753e-03	1.780379e-03
402           	1.115909e-04	2.754773e-03	1.723894e-03
403           	1.108474e-04	2.754793e-03	1.666880e-03
404           	1.095096e-04	2.754811e-03	1.614294e-03
405           	1.092642e-04	2.754830e-03	1.562268e-03
406           	1.071076e-04	2.754847e-03	1.515362e-03
407           	1.071145e-04	2.754864e-03	1.465313e-03
408           	1.023663e-04	2.754881e-03	1.416966e-03
409           	9.828414e-05	2.754896e-03	1.367012e-03
410           	1.043742e-04	2.754911e-03	1.332165e-03
411           	9.969470e-05	2.754926e-03	1.297855e-03
412           	9.612792e-05	2.754940e-03	1.276239e-03
413           	9.200709e-05	2.754953e-03	1.253916e-03
414           	9.100826e-05	2.754965e-03	1.231810e-03
415           	8.813818e-05	2.754977e-03	1.208674e-03
416           	8.635317e-05	2.754988e-03	1.191803e-03
417           	8.264342e-05	2.754998e-03	1.174111e-03
418           	8.298479e-05	2.755008e-03	1.158197e-03
419           	7.970719e-05	2.755017e-03	1.143428e-03
420           	7.879614e-05	2.755026e-03	1.132530e-03
421           	7.747458e-05	2.755034e-03	1.119431e-03
422           	7.690638e-05	2.755041e-03	1.111073e-03
423           	7.620979e-05	2.755047e-03	1.100636e-03
424           	7.614001e-05	2.755053e-03	1.093730e-03
425           	7.542030e-05	2.755059e-03	1.086005e-03
426           	7.516507e-05	2.755063e-03	1.082622e-03
427           	7.471445e-05	2.755068e-03	1.077832e-03
428           	7.468696e-05	2.755071e-03	1.076600e-03
429           	7.413566e-05	2.755074e-03	1.073256e-03
430           	7.429850e-05	2.755077e-03	1.073914e-03
431           	8.676394e-05	2.755078e-03	1.072661e-03
432           	8.039219e-05	2.755080e-03	1.077945e-03
433           	8.193780e-05	2.755080e-03	1.082042e-03
434           	8.024264e-05	2.755080e-03	1.083618e-03
435           	7.988522e-05	2.755080e-03	1.082336e-03
436           	7.930330e-05	2.755079e-03	1.085378e-03
437           	7.700649e-05	2.755078e-03	1.088297e-03
438           	7.622371e-05	2.755076e-03	1.093482e-03
439           	7.610555e-05	2.755073e-03	1.098880e-03
440           	7.621050e-05	2.755071e-03	1.105525e-03
441           	7.776879e-05	2.755067e-03	1.110732e-03
442           	7.574652e-05	2.755063e-03	1.118878e-03
443           	7.553210e-05	2.755059e-03	1.125646e-03
444           	7.768342e-05	2.755054e-03	1.132518e-03
445           	7.825994e-05	2.755049e-03	1.140231e-03
446           	7.603241e-05	2.755044e-03	1.149857e-03
447           	7.589224e-05	2.755038e-03	1.158953e-03
448           	7.809616e-05	2.755031e-03	1.167310e-03
449           	7.857386e-05	2.755025e-03	1.176410e-03
450           	7.665275e-05	2.755018e-03	1.187955e-03
451           	7.890984e-05	2.755010e-03	1.197435e-03
452           	7.708627e-05	2.755003e-03	1.208833e-03
453           	7.932083e-05	2.754995e-03	1.218909e-03
454           	7.991050e-05	2.754986e-03	1.229410e-03
455           	7.765753e-05	2.754978e-03	1.242109e-03
456           	8.000148e-05	2.754969e-03	1.253957e-03
457           	8.051985e-05	2.754960e-03	1.266228e-03
458           	7.830424e-05	2.754950e-03	1.279741e-03
459           	8.056839e-05	2.754940e-03	1.291707e-03
460           	8.108717e-05	2.754930e-03	1.304591e-03
461           	8.131314e-05	2.754920e-03	1.317736e-03
462           	7.901215e-05	2.754910e-03	1.331943e-03
463           	8.143571e-05	2.754899e-03	1.345398e-03
464           	8.193061e-05	2.754889e-03	1.359114e-03
465           	8.224244e-05	2.754878e-03	1.373187e-03
466           	8.244805e-05	2.754867e-03	1.387187e-03
467           	8.006792e-05	2.754856e-03	1.402559e-03
468           	8.234581e-05	2.754844e-03	1.416403e-03
469           	8.288866e-05	2.754833e-03	1.430173e-03
470           	8.323977e-05	2.754821e-03	1.444811e-03
471           	8.345414e-05	2.754810e-03	1.459319e-03
472           	8.360297e-05	2.754798e-03	1.473747e-03
473           	8.376218e-05	2.754786e-03	1.488145e-03
474           	8.380525e-05	2.754775e-03	1.502829e-03
475           	8.390561e-05	2.754763e-03	1.517222e-03
476           	3.680146e-04	2.754751e-03	1.534006e-03
477           	3.117356e-04	2.754740e-03	1.529132e-03
478           	2.300012e-04	2.754726e-03	1.557856e-03
479           	2.058120e-04	2.754708e-03	1.577531e-03
480           	1.753637e-04	2.754699e-03	1.594599e-03
481           	1.464056e-04	2.754684e-03	1.608954e-03
482           	1.356577e-04	2.754670e-03	1.621874e-03
483           	1.303621e-04	2.754657e-03	1.634183e-03
484           	1.224768e-04	2.754643e-03	1.647706e-03
485           	1.128326e-04	2.754629e-03	1.661133e-03
486           	1.051544e-04	2.754616e-03	1.678078e-03
487           	1.041315e-04	2.754603e-03	1.689779e-03
488           	1.006279e-04	2.754589e-03	1.701114e-03
489           	9.906198e-05	2.754576e-03	1.711544e-03
490           	9.703325e-05	2.754563e-03	1.723114e-03
491           	9.530584e-05	2.754550e-03	1.735534e-03
492           	9.374464e-05	2.754537e-03	1.748772e-03
493           	9.273572e-05	2.754524e-03	1.761248e-03
494           	9.176059e-05	2.754512e-03	1.773505e-03
495           	9.113114e-05	2.754499e-03	1.785390e-03
496           	9.054336e-05	2.754487e-03	1.797229e-03
497           	9.019545e-05	2.754475e-03	1.808843e-03
498           	9.009788e-05	2.754463e-03	1.820583e-03
499           	9.018427e-05	2.754451e-03	1.832245e-03
500           	9.021168e-05	2.754440e-03	1.843874e-03
501           	9.036871e-05	2.754429e-03	1.855045e-03
502           	9.076707e-05	2.754417e-03	1.864901e-03
503           	9.099093e-05	2.754407e-03	1.874002e-03
504           	9.083279e-05	2.754396e-03	1.883848e-03
505           	9.065466e-05	2.754386e-03	1.894234e-03
506           	9.067691e-05	2.754376e-03	1.904857e-03
507           	9.087871e-05	2.754367e-03	1.915452e-03
508           	9.134693e-05	2.754357e-03	1.926031e-03
509           	9.179999e-05	2.754348e-03	1.936094e-03
510           	9.212587e-05	2.754340e-03	1.945688e-03
511           	9.241994e-05	2.754332e-03	1.955301e-03
512           	9.273075e-05	2.754324e-03	1.964911e-03
513           	9.305815e-05	2.754316e-03	1.974482e-03
514           	9.342359e-05	2.754309e-03	1.984012e-03
515           	9.380162e-05	2.754302e-03	1.993410e-03
516           	9.430152e-05	2.754296e-03	2.002907e-03
517           	9.473192e-05	2.754290e-03	2.011967e-03
518           	9.511634e-05	2.754285e-03	2.020806e-03
519           	9.549710e-05	2.754280e-03	2.029547e-03
520           	9.588827e-05	2.754275e-03	2.038212e-03
521           	9.628748e-05	2.754271e-03	2.046789e-03
522           	9.668633e-05	2.754267e-03	2.055312e-03
523           	9.704762e-05	2.754264e-03	2.063534e-03
524           	9.749649e-05	2.754261e-03	2.072002e-03
525           	9.792471e-05	2.754259e-03	2.080141e-03
526           	9.832184e-05	2.754257e-03	2.088118e-03
527           	9.873271e-05	2.754256e-03	2.095939e-03
528           	9.915127e-05	2.754255e-03	2.103671e-03
529           	9.956479e-05	2.754255e-03	2.111303e-03
530           	9.997459e-05	2.754256e-03	2.118871e-03
531           	1.004310e-04	2.754257e-03	2.126358e-03
532           	1.008630e-04	2.754258e-03	2.133891e-03
533           	1.012773e-04	2.754260e-03	2.141157e-03
534           	1.016733e-04	2.754263e-03	2.148291e-03
535           	1.020591e-04	2.754266e-03	2.155363e-03
536           	1.024889e-04	2.754270e-03	2.162380e-03
537           	1.030556e-04	2.754274e-03	2.168765e-03
538           	1.035034e-04	2.754280e-03	2.174715e-03
539           	1.038031e-04	2.754285e-03	2.181107e-03
540           	1.041109e-04	2.754292e-03	2.187662e-03
541           	1.044341e-04	2.754299e-03	2.194293e-03
542           	1.047684e-04	2.754306e-03	2.200832e-03
543           	1.051623e-04	2.754314e-03	2.207192e-03
544           	1.055965e-04	2.754323e-03	2.213390e-03
545           	1.060287e-04	2.754333e-03	2.219500e-03
546           	1.065056e-04	2.754343e-03	2.225726e-03
547           	1.069416e-04	2.754354e-03	2.231644e-03
548           	1.073195e-04	2.754366e-03	2.237480e-03
549           	1.076346e-04	2.754379e-03	2.243327e-03
550           	1.081761e-04	2.754392e-03	2.248982e-03
551           	1.084405e-04	2.754406e-03	2.254633e-03
552           	1.088514e-04	2.754420e-03	2.260193e-03
553           	1.091087e-04	2.754436e-03	2.266041e-03