/*--------------------------------*- C++ -*----------------------------------*\
  =========                 |
  \\      /  F ield         | OpenFOAM: The Open Source CFD Toolbox
   \\    /   O peration     | Website:  https://openfoam.org
    \\  /    A nd           | Version:  10
     \\/     M anipulation  |
\*---------------------------------------------------------------------------*/
FoamFile
{
    format      ascii;
    class       surfaceScalarField;
    location    "2500";
    object      phi;
}
// * * * * * * * * * * * * * * * * * * * * * * * * * * * * * * * * * * * * * //

dimensions      [0 3 -1 0 0 0 0];

internalField   nonuniform List<scalar> 
696
(
6.39277e-05
2.16422e-15
6.39277e-05
1.57641e-15
6.39277e-05
-1.65222e-15
-1.577e-15
0.0001948
7.54651e-15
0.0001948
6.30665e-15
0.0001948
-7.02694e-15
-6.30845e-15
0.000330581
1.69427e-14
0.000330581
1.42838e-14
0.000330581
-1.64317e-14
-1.42868e-14
0.000471401
3.0579e-14
0.000471401
2.55827e-14
0.000471401
-3.00606e-14
-2.55867e-14
0.000617389
4.85222e-14
0.000617389
4.0283e-14
0.000617389
-4.80122e-14
-4.02884e-14
0.000768681
7.08132e-14
0.000768681
5.84477e-14
0.000768681
-7.02968e-14
-5.84539e-14
0.000925412
9.7328e-14
0.000925412
8.01437e-14
0.000925412
-9.68203e-14
-8.01512e-14
0.00108772
1.27915e-13
0.00108772
1.05411e-13
0.00108772
-1.27401e-13
-1.0542e-13
0.00125575
1.62256e-13
0.00125575
1.34289e-13
0.00125575
-1.61752e-13
-1.34299e-13
0.00142963
2.00016e-13
0.00142963
1.6678e-13
0.00142963
-1.99507e-13
-1.66791e-13
0.00160953
2.40701e-13
0.00160953
2.02873e-13
0.00160953
-2.40202e-13
-2.02884e-13
0.00179557
2.83815e-13
0.00179557
2.42504e-13
0.00179557
-2.83311e-13
-2.42517e-13
0.00198792
3.28721e-13
0.00198792
2.85593e-13
0.00198792
-3.28227e-13
-2.85607e-13
0.00218673
3.74798e-13
0.00218673
3.31986e-13
0.00218673
-3.74302e-13
-3.32e-13
0.00239215
4.21319e-13
0.00239215
3.81503e-13
0.00239215
-4.20832e-13
-3.81519e-13
0.00260433
4.67593e-13
0.00260433
4.33881e-13
0.00260433
-4.67104e-13
-4.33898e-13
0.00282343
5.12857e-13
0.00282343
4.88826e-13
0.00282343
-5.12377e-13
-4.88844e-13
0.00304962
5.56419e-13
0.00304962
5.45951e-13
0.00304962
-5.55937e-13
-5.4597e-13
0.00328306
5.97543e-13
0.00328306
6.04842e-13
0.00328306
-5.97071e-13
-6.04862e-13
0.00352391
6.35605e-13
0.00352391
6.64993e-13
0.00352391
-6.35131e-13
-6.65014e-13
0.00377234
6.6997e-13
0.00377234
7.25876e-13
0.00377234
-6.69505e-13
-7.25899e-13
0.00402851
7.0014e-13
0.00402851
7.86885e-13
0.00402851
-6.99673e-13
-7.86909e-13
0.0042926
7.2564e-13
0.0042926
8.47413e-13
0.0042926
-7.25183e-13
-8.47438e-13
0.00456477
7.46158e-13
0.00456477
9.06784e-13
0.00456477
-7.45701e-13
-9.0681e-13
0.0048452
7.61429e-13
0.0048452
9.64353e-13
0.0048452
-7.6098e-13
-9.64381e-13
0.00513406
7.71361e-13
0.00513406
1.01943e-12
0.00513406
-7.70912e-13
-1.01946e-12
0.00543152
7.75911e-13
0.00543152
1.0714e-12
0.00543152
-7.75473e-13
-1.07143e-12
0.00573777
7.75228e-13
0.00573777
1.11961e-12
0.00573777
-7.74788e-13
-1.11964e-12
0.00605298
7.69499e-13
0.00605298
1.16352e-12
0.00605298
-7.69068e-13
-1.16355e-12
0.00637732
7.59085e-13
0.00637732
1.2026e-12
0.00637732
-7.58654e-13
-1.20263e-12
0.00671098
7.44378e-13
0.00671098
1.23645e-12
0.00671098
-7.43956e-13
-1.23649e-12
0.00705413
7.25917e-13
0.00705413
1.26472e-12
0.00705413
-7.25495e-13
-1.26475e-12
0.00740696
7.04243e-13
0.00740696
1.28718e-12
0.00740696
-7.03826e-13
-1.28722e-12
0.00776963
6.80003e-13
0.00776963
1.30367e-12
0.00776963
-6.79587e-13
-1.30371e-12
0.00814233
6.53815e-13
0.00814233
1.3142e-12
0.00814233
-6.53406e-13
-1.31425e-12
0.00852523
6.26364e-13
0.00852523
1.31883e-12
0.00852523
-6.25956e-13
-1.31887e-12
0.00891852
5.98268e-13
0.00891852
1.31776e-12
0.00891852
-5.97867e-13
-1.31781e-12
0.00932236
5.70167e-13
0.00932236
1.31126e-12
0.00932236
-5.69766e-13
-1.31131e-12
0.00973693
5.426e-13
0.00973693
1.29974e-12
0.00973693
-5.42209e-13
-1.29979e-12
0.0101624
5.16109e-13
0.0101624
1.2836e-12
0.0101624
-5.15713e-13
-1.28366e-12
0.0105989
4.91092e-13
0.0105989
1.26341e-12
0.0105989
-4.90703e-13
-1.26347e-12
0.0110467
4.67924e-13
0.0110467
1.23967e-12
0.0110467
-4.67538e-13
-1.23973e-12
0.0115059
4.46828e-13
0.0115059
1.21301e-12
0.0115059
-4.46453e-13
-1.21307e-12
0.0119767
4.28008e-13
0.0119767
1.18397e-12
0.0119767
-4.27634e-13
-1.18403e-12
0.0124591
4.11513e-13
0.0124591
1.15316e-12
0.0124591
-4.11146e-13
-1.15322e-12
0.0129535
3.97365e-13
0.0129535
1.12111e-12
0.0129535
-3.96998e-13
-1.12118e-12
0.0134599
3.85458e-13
0.0134599
1.08836e-12
0.0134599
-3.85096e-13
-1.08843e-12
0.0139784
3.75672e-13
0.0139784
1.05534e-12
0.0139784
-3.75314e-13
-1.05541e-12
0.0145092
3.67781e-13
0.0145092
1.02249e-12
0.0145092
-3.67433e-13
-1.02255e-12
0.0150525
3.61577e-13
0.0150525
9.90107e-13
0.0150525
-3.61235e-13
-9.9017e-13
0.0156083
3.56762e-13
0.0156083
9.58484e-13
0.0156083
-3.56426e-13
-9.58548e-13
0.0161768
3.5308e-13
0.0161768
9.278e-13
0.0161768
-3.52752e-13
-9.27862e-13
0.016758
3.50245e-13
0.016758
8.98213e-13
0.016758
-3.49932e-13
-8.9827e-13
0.0173521
3.4801e-13
0.0173521
8.69769e-13
0.0173521
-3.47705e-13
-8.69822e-13
0.0179592
3.4611e-13
0.0179592
8.42513e-13
0.0179592
-3.45815e-13
-8.42561e-13
0.0185793
3.44345e-13
0.0185793
8.16396e-13
0.0185793
-3.44053e-13
-8.16448e-13
0.0192124
3.4251e-13
0.0192124
7.91382e-13
0.0192124
-3.4222e-13
-7.91435e-13
0.0198587
3.40469e-13
0.0198587
7.6737e-13
0.0198587
-3.40183e-13
-7.67427e-13
0.0205182
3.38088e-13
0.0205182
7.4428e-13
0.0205182
-3.37808e-13
-7.44341e-13
0.0211909
3.35306e-13
0.0211909
7.2198e-13
0.0211909
-3.3503e-13
-7.22038e-13
0.0218767
3.32049e-13
0.0218767
7.00368e-13
0.0218767
-3.31769e-13
-7.00437e-13
0.0225757
3.283e-13
0.0225757
6.79335e-13
0.0225757
-3.28023e-13
-6.79408e-13
0.0232879
3.24052e-13
0.0232879
6.58792e-13
0.0232879
-3.23781e-13
-6.58867e-13
0.0240131
3.19327e-13
0.0240131
6.38645e-13
0.0240131
-3.19063e-13
-6.38717e-13
0.0247513
3.14134e-13
0.0247513
6.1882e-13
0.0247513
-3.13872e-13
-6.18894e-13
0.0255025
3.08541e-13
0.0255025
5.99245e-13
0.0255025
-3.08277e-13
-5.99325e-13
0.0262664
3.02547e-13
0.0262664
5.79913e-13
0.0262664
-3.02294e-13
-5.7999e-13
0.027043
2.96215e-13
0.027043
5.60771e-13
0.027043
-2.95971e-13
-5.60843e-13
0.027832
2.89583e-13
0.027832
5.418e-13
0.027832
-2.89349e-13
-5.4187e-13
0.0286332
2.82685e-13
0.0286332
5.22971e-13
0.0286332
-2.82456e-13
-5.2304e-13
0.0294464
2.75546e-13
0.0294464
5.04295e-13
0.0294464
-2.7532e-13
-5.04367e-13
0.0302713
2.68192e-13
0.0302713
4.85757e-13
0.0302713
-2.6798e-13
-4.85821e-13
0.0311077
2.60654e-13
0.0311077
4.67352e-13
0.0311077
-2.60436e-13
-4.67426e-13
0.031955
2.52932e-13
0.031955
4.4909e-13
0.031955
-2.52718e-13
-4.49165e-13
0.0328131
2.45049e-13
0.0328131
4.30978e-13
0.0328131
-2.44844e-13
-4.31045e-13
0.0336813
2.37004e-13
0.0336813
4.12995e-13
0.0336813
-2.36814e-13
-4.13058e-13
0.0345592
2.2883e-13
0.0345592
3.95151e-13
0.0345592
-2.28642e-13
-3.95218e-13
0.0354464
2.20513e-13
0.0354464
3.77433e-13
0.0354464
-2.20331e-13
-3.77496e-13
0.0363421
2.12062e-13
0.0363421
3.59851e-13
0.0363421
-2.11889e-13
-3.59905e-13
0.0372458
2.03455e-13
0.0372458
3.42389e-13
0.0372458
-2.03297e-13
-3.42442e-13
0.0381567
1.94726e-13
0.0381567
3.25024e-13
0.0381567
-1.94582e-13
-3.25069e-13
0.0390742
1.85874e-13
0.0390742
3.07755e-13
0.0390742
-1.85733e-13
-3.0781e-13
0.0399972
1.76888e-13
0.0399972
2.90589e-13
0.0399972
-1.76744e-13
-2.90651e-13
0.0409251
1.67767e-13
0.0409251
2.73522e-13
0.0409251
-1.6764e-13
-2.73567e-13
0.0418567
1.58498e-13
0.0418567
2.5654e-13
0.0418567
-1.584e-13
-2.56571e-13
0.0427911
1.49115e-13
0.0427911
2.39623e-13
0.0427911
-1.49027e-13
-2.39643e-13
0.043727
1.39574e-13
0.043727
2.22744e-13
0.043727
-1.39491e-13
-2.22765e-13
0.0446633
1.29897e-13
0.0446633
2.05899e-13
0.0446633
-1.29818e-13
-2.05926e-13
0.0455987
1.20078e-13
0.0455987
1.89102e-13
0.0455987
-1.19997e-13
-1.89142e-13
0.0465318
1.10098e-13
0.0465318
1.72332e-13
0.0465318
-1.10021e-13
-1.72369e-13
0.0474609
9.99539e-14
0.0474609
1.55566e-13
0.0474609
-9.98852e-14
-1.55602e-13
0.0483846
8.96513e-14
0.0483846
1.38768e-13
0.0483846
-8.95921e-14
-1.3879e-13
0.0493011
7.91886e-14
0.0493011
1.21946e-13
0.0493011
-7.91337e-14
-1.21966e-13
0.0502085
6.85718e-14
0.0502085
1.05033e-13
0.0502085
-6.85257e-14
-1.05049e-13
0.0511048
5.77688e-14
0.0511048
8.80063e-14
0.0511048
-5.77254e-14
-8.80313e-14
0.0519879
4.67662e-14
0.0519879
7.08342e-14
0.0519879
-4.67173e-14
-7.08664e-14
0.0528557
3.55173e-14
0.0528557
5.34719e-14
0.0528557
-3.54694e-14
-5.3506e-14
0.0537056
2.38985e-14
0.0537056
3.58863e-14
0.0537056
-2.38697e-14
-3.59119e-14
0.0545351
1.17503e-14
0.0545351
1.80653e-14
0.0545351
-1.17373e-14
-1.80771e-14
0.0553414
0.0553414
0.0553414
)
;

boundaryField
{
    inlet
    {
        type            cyclic;
        value           nonuniform List<scalar> 
100
(
-0.0553414
-0.0545351
-0.0537056
-0.0528557
-0.0519879
-0.0511048
-0.0502085
-0.0493011
-0.0483846
-0.0474609
-0.0465318
-0.0455987
-0.0446633
-0.043727
-0.0427911
-0.0418567
-0.0409251
-0.0399972
-0.0390742
-0.0381567
-0.0372458
-0.0363421
-0.0354464
-0.0345592
-0.0336813
-0.0328131
-0.031955
-0.0311077
-0.0302713
-0.0294464
-0.0286332
-0.027832
-0.027043
-0.0262664
-0.0255025
-0.0247513
-0.0240131
-0.0232879
-0.0225757
-0.0218767
-0.0211909
-0.0205182
-0.0198587
-0.0192124
-0.0185793
-0.0179592
-0.0173521
-0.016758
-0.0161768
-0.0156083
-0.0150525
-0.0145092
-0.0139784
-0.0134599
-0.0129535
-0.0124591
-0.0119767
-0.0115059
-0.0110467
-0.0105989
-0.0101624
-0.00973693
-0.00932236
-0.00891852
-0.00852523
-0.00814233
-0.00776963
-0.00740696
-0.00705413
-0.00671098
-0.00637732
-0.00605298
-0.00573777
-0.00543152
-0.00513406
-0.0048452
-0.00456477
-0.0042926
-0.00402851
-0.00377234
-0.00352391
-0.00328306
-0.00304962
-0.00282343
-0.00260433
-0.00239215
-0.00218673
-0.00198792
-0.00179557
-0.00160953
-0.00142963
-0.00125575
-0.00108772
-0.000925412
-0.000768681
-0.000617389
-0.000471401
-0.000330581
-0.0001948
-6.39277e-05
)
;
    }
    outlet
    {
        type            cyclic;
        value           nonuniform List<scalar> 
100
(
0.0553414
0.0545351
0.0537056
0.0528557
0.0519879
0.0511048
0.0502085
0.0493011
0.0483846
0.0474609
0.0465318
0.0455987
0.0446633
0.043727
0.0427911
0.0418567
0.0409251
0.0399972
0.0390742
0.0381567
0.0372458
0.0363421
0.0354464
0.0345592
0.0336813
0.0328131
0.031955
0.0311077
0.0302713
0.0294464
0.0286332
0.027832
0.027043
0.0262664
0.0255025
0.0247513
0.0240131
0.0232879
0.0225757
0.0218767
0.0211909
0.0205182
0.0198587
0.0192124
0.0185793
0.0179592
0.0173521
0.016758
0.0161768
0.0156083
0.0150525
0.0145092
0.0139784
0.0134599
0.0129535
0.0124591
0.0119767
0.0115059
0.0110467
0.0105989
0.0101624
0.00973693
0.00932236
0.00891852
0.00852523
0.00814233
0.00776963
0.00740696
0.00705413
0.00671098
0.00637732
0.00605298
0.00573777
0.00543152
0.00513406
0.0048452
0.00456477
0.0042926
0.00402851
0.00377234
0.00352391
0.00328306
0.00304962
0.00282343
0.00260433
0.00239215
0.00218673
0.00198792
0.00179557
0.00160953
0.00142963
0.00125575
0.00108772
0.000925412
0.000768681
0.000617389
0.000471401
0.000330581
0.0001948
6.39277e-05
)
;
    }
    fixedWalls-bottom
    {
        type            calculated;
        value           uniform 0;
    }
    fixedWalls-top
    {
        type            symmetry;
        value           uniform 0;
    }
    frontAndBack
    {
        type            empty;
        value           nonuniform List<scalar> 0();
    }
}


// ************************************************************************* //
