/*--------------------------------*- C++ -*----------------------------------*\
  =========                 |
  \\      /  F ield         | OpenFOAM: The Open Source CFD Toolbox
   \\    /   O peration     | Website:  https://openfoam.org
    \\  /    A nd           | Version:  10
     \\/     M anipulation  |
\*---------------------------------------------------------------------------*/
FoamFile
{
    format      ascii;
    class       volScalarField;
    location    "144";
    object      k;
}
// * * * * * * * * * * * * * * * * * * * * * * * * * * * * * * * * * * * * * //

dimensions      [0 2 -2 0 0 0 0];

internalField   nonuniform List<scalar> 
200
(
2.22045e-16
2.22045e-16
2.22045e-16
2.22045e-16
2.22045e-16
2.22045e-16
2.22045e-16
2.22045e-16
1.28157e-15
1.28152e-15
1.2802e-15
1.28007e-15
4.56366e-15
4.56349e-15
4.55885e-15
4.55835e-15
1.16048e-14
1.16044e-14
1.15928e-14
1.15915e-14
2.41966e-14
2.4196e-14
2.41722e-14
2.41694e-14
4.43324e-14
4.43315e-14
4.42886e-14
4.42835e-14
7.41906e-14
7.41896e-14
7.41194e-14
7.41108e-14
1.16097e-13
1.16096e-13
1.1599e-13
1.15977e-13
1.72459e-13
1.72461e-13
1.72309e-13
1.7229e-13
2.45675e-13
2.45684e-13
2.45478e-13
2.45454e-13
3.38041e-13
3.38069e-13
3.37796e-13
3.37766e-13
4.51657e-13
4.51725e-13
4.51366e-13
4.51334e-13
5.88352e-13
5.8849e-13
5.88022e-13
5.87995e-13
7.49599e-13
7.49856e-13
7.49243e-13
7.49235e-13
9.36451e-13
9.36894e-13
9.36088e-13
9.3612e-13
1.14948e-12
1.15019e-12
1.14906e-12
1.14916e-12
1.38878e-12
1.38981e-12
1.38815e-12
1.38842e-12
1.65388e-12
1.65516e-12
1.65272e-12
1.65346e-12
1.94367e-12
1.94509e-12
1.94153e-12
1.94317e-12
2.25646e-12
2.25783e-12
2.25273e-12
2.25589e-12
2.59e-12
2.59101e-12
2.58379e-12
2.58938e-12
2.94099e-12
2.94172e-12
2.93163e-12
2.94037e-12
3.30603e-12
3.30655e-12
3.29262e-12
3.30548e-12
3.68112e-12
3.68161e-12
3.66265e-12
3.68078e-12
4.06175e-12
4.06253e-12
4.03727e-12
4.06182e-12
4.44303e-12
4.44468e-12
4.41176e-12
4.4436e-12
4.8198e-12
4.82305e-12
4.78125e-12
4.82079e-12
5.18675e-12
5.19195e-12
5.14086e-12
5.18794e-12
5.5386e-12
5.54568e-12
5.48565e-12
5.53968e-12
5.87041e-12
5.87877e-12
5.81081e-12
5.87093e-12
6.17772e-12
6.18593e-12
6.11179e-12
6.17718e-12
6.45676e-12
6.4623e-12
6.38445e-12
6.45469e-12
6.70442e-12
6.70369e-12
6.62519e-12
6.70051e-12
6.91886e-12
6.90742e-12
6.83095e-12
6.913e-12
7.09965e-12
7.07359e-12
6.99905e-12
7.09308e-12
7.2472e-12
7.20112e-12
7.12948e-12
7.2469e-12
7.33092e-12
7.29135e-12
7.21999e-12
7.35083e-12
7.37002e-12
7.34135e-12
7.27092e-12
7.4107e-12
7.37045e-12
7.35156e-12
7.28337e-12
7.42955e-12
7.33479e-12
7.32416e-12
7.25944e-12
7.40953e-12
7.26448e-12
7.26315e-12
7.20221e-12
7.35238e-12
7.16485e-12
7.17381e-12
7.11584e-12
7.25886e-12
7.04784e-12
7.06191e-12
7.00548e-12
7.1268e-12
6.91873e-12
6.93266e-12
6.87744e-12
6.9469e-12
6.77685e-12
6.79226e-12
6.73888e-12
6.78381e-12
6.6335e-12
6.64844e-12
6.59747e-12
6.63411e-12
6.49752e-12
6.50953e-12
6.46145e-12
6.50285e-12
6.37611e-12
6.38385e-12
6.33922e-12
6.40245e-12
6.27395e-12
6.27902e-12
6.23957e-12
6.35623e-12
)
;

boundaryField
{
    inlet
    {
        type            cyclic;
    }
    outlet
    {
        type            cyclic;
    }
    fixedWalls-bottom
    {
        type            kqRWallFunction;
        value           uniform 2.22045e-16;
    }
    fixedWalls-top
    {
        type            symmetry;
    }
    frontAndBack
    {
        type            empty;
    }
}


// ************************************************************************* //
