/*--------------------------------*- C++ -*----------------------------------*\
  =========                 |
  \\      /  F ield         | OpenFOAM: The Open Source CFD Toolbox
   \\    /   O peration     | Website:  https://openfoam.org
    \\  /    A nd           | Version:  10
     \\/     M anipulation  |
\*---------------------------------------------------------------------------*/
FoamFile
{
    format      ascii;
    class       volScalarField;
    location    "144";
    object      nut;
}
// * * * * * * * * * * * * * * * * * * * * * * * * * * * * * * * * * * * * * //

dimensions      [0 2 -1 0 0 0 0];

internalField   nonuniform List<scalar> 
200
(
3.60869e-21
3.60869e-21
3.60869e-21
3.60869e-21
2.21965e-20
2.21965e-20
2.21965e-20
2.21965e-20
3.93843e-19
3.93827e-19
3.93422e-19
3.93381e-19
3.06104e-18
3.06094e-18
3.05783e-18
3.05749e-18
1.40146e-17
1.40144e-17
1.40006e-17
1.3999e-17
4.65762e-17
4.65775e-17
4.65336e-17
4.65277e-17
1.25295e-16
1.25304e-16
1.25191e-16
1.25174e-16
2.90793e-16
2.90824e-16
2.9057e-16
2.90532e-16
6.05977e-16
6.06058e-16
6.05541e-16
6.05465e-16
1.1639e-15
1.16407e-15
1.16311e-15
1.16297e-15
2.09577e-15
2.09614e-15
2.09448e-15
2.09424e-15
3.57758e-15
3.5784e-15
3.57568e-15
3.57531e-15
5.83555e-15
5.83735e-15
5.8331e-15
5.83259e-15
9.14988e-15
9.15374e-15
9.14737e-15
9.14678e-15
1.3855e-14
1.38629e-14
1.38538e-14
1.38533e-14
2.03351e-14
2.03506e-14
2.0338e-14
2.03381e-14
2.90143e-14
2.90432e-14
2.90249e-14
2.90264e-14
4.03426e-14
4.03915e-14
4.03634e-14
4.03707e-14
5.47731e-14
5.48477e-14
5.48047e-14
5.48297e-14
7.27364e-14
7.2841e-14
7.27758e-14
7.2842e-14
9.46148e-14
9.47504e-14
9.46508e-14
9.47984e-14
1.20718e-13
1.20878e-13
1.20723e-13
1.21021e-13
1.51238e-13
1.51429e-13
1.51183e-13
1.51715e-13
1.86276e-13
1.86501e-13
1.861e-13
1.86993e-13
2.25811e-13
2.26077e-13
2.25421e-13
2.26848e-13
2.69704e-13
2.70028e-13
2.68977e-13
2.71151e-13
3.17706e-13
3.18123e-13
3.16502e-13
3.19648e-13
3.6947e-13
3.70033e-13
3.67651e-13
3.71974e-13
4.24569e-13
4.2531e-13
4.22027e-13
4.27673e-13
4.82511e-13
4.83433e-13
4.79203e-13
4.86216e-13
5.42772e-13
5.43833e-13
5.38657e-13
5.47059e-13
6.04815e-13
6.05895e-13
5.99835e-13
6.09647e-13
6.68115e-13
6.6896e-13
6.62176e-13
6.73448e-13
7.32156e-13
7.32349e-13
7.25117e-13
7.37961e-13
7.96506e-13
7.9546e-13
7.88088e-13
8.02784e-13
8.60854e-13
8.57971e-13
8.50476e-13
8.67788e-13
9.24966e-13
9.19465e-13
9.11878e-13
9.33536e-13
9.84392e-13
9.79847e-13
9.71492e-13
9.9669e-13
1.04067e-12
1.03809e-12
1.02879e-12
1.05738e-12
1.09339e-12
1.09354e-12
1.08341e-12
1.11524e-12
1.14363e-12
1.14537e-12
1.13509e-12
1.16944e-12
1.1899e-12
1.19323e-12
1.18319e-12
1.21909e-12
1.23221e-12
1.23651e-12
1.22696e-12
1.26303e-12
1.26799e-12
1.27603e-12
1.26453e-12
1.29967e-12
1.30086e-12
1.30946e-12
1.29727e-12
1.3247e-12
1.32795e-12
1.33707e-12
1.325e-12
1.34827e-12
1.34952e-12
1.35791e-12
1.3464e-12
1.36869e-12
1.366e-12
1.3712e-12
1.36209e-12
1.38482e-12
1.37151e-12
1.37957e-12
1.36826e-12
1.39802e-12
1.37219e-12
1.37767e-12
1.36825e-12
1.40975e-12
)
;

boundaryField
{
    inlet
    {
        type            cyclic;
    }
    outlet
    {
        type            cyclic;
    }
    fixedWalls-bottom
    {
        type            nutkWallFunction;
        Cmu             0.09;
        kappa           0.41;
        E               9.8;
        value           uniform 0;
    }
    fixedWalls-top
    {
        type            symmetry;
    }
    frontAndBack
    {
        type            empty;
    }
}


// ************************************************************************* //
