/*--------------------------------*- C++ -*----------------------------------*\
  =========                 |
  \\      /  F ield         | OpenFOAM: The Open Source CFD Toolbox
   \\    /   O peration     | Website:  https://openfoam.org
    \\  /    A nd           | Version:  10
     \\/     M anipulation  |
\*---------------------------------------------------------------------------*/
FoamFile
{
    format      ascii;
    class       volScalarField;
    location    "144";
    object      omega;
}
// * * * * * * * * * * * * * * * * * * * * * * * * * * * * * * * * * * * * * //

dimensions      [0 0 -1 0 0 0 0];

internalField   nonuniform List<scalar> 
200
(
61530.6
61530.6
61530.6
61530.6
10003.6
10003.6
10003.6
10003.6
3254.01
3254.01
3254.01
3254.01
1490.88
1490.88
1490.88
1490.88
828.048
828.033
828.018
828.022
519.506
519.478
519.456
519.462
353.824
353.791
353.769
353.775
255.132
255.101
255.083
255.087
191.587
191.56
191.547
191.55
148.174
148.153
148.145
148.147
117.224
117.208
117.203
117.204
94.4888
94.4749
94.4704
94.4718
77.3976
77.3852
77.3801
77.3814
64.3016
64.2896
64.2831
64.2844
54.1032
54.0908
54.0823
54.0836
46.051
46.0376
46.0266
46.0279
39.6176
39.6029
39.5889
39.59
34.4247
34.4085
34.3912
34.3918
30.1951
30.1774
30.1564
30.1562
26.7221
26.7032
26.6783
26.6765
23.8489
23.8292
23.8004
23.7967
21.455
21.4349
21.4026
21.3961
19.4461
19.4264
19.3913
19.3809
17.748
17.7294
17.6927
17.6771
16.3018
16.2848
16.2481
16.2258
15.06
15.0449
15.0097
14.9799
13.9847
13.9716
13.9391
13.9015
13.0452
13.0341
13.0049
12.96
12.2165
12.2074
12.1814
12.1306
11.4787
11.4715
11.4474
11.3934
10.8156
10.8099
10.7876
10.7318
10.2142
10.2096
10.1891
10.1324
9.66415
9.66022
9.64162
9.58455
9.1571
9.15368
9.13672
9.07976
8.68652
8.68356
8.66775
8.61128
8.24722
8.24456
8.22956
8.17374
7.8351
7.83185
7.81845
7.76285
7.44715
7.44131
7.43186
7.37523
7.08203
7.07201
7.06742
7.00855
6.74089
6.7227
6.72264
6.66187
6.41363
6.39456
6.39548
6.33597
6.10513
6.08695
6.08712
6.03106
5.81462
5.80165
5.79956
5.74716
5.55829
5.53427
5.53999
5.48355
5.31857
5.29428
5.30148
5.24414
5.10326
5.07996
5.08595
5.03148
4.91547
4.89607
4.90007
4.84705
4.7566
4.74733
4.74377
4.69582
4.64896
4.6274
4.63306
4.57964
4.57221
4.55771
4.56027
4.50878
)
;

boundaryField
{
    inlet
    {
        type            cyclic;
    }
    outlet
    {
        type            cyclic;
    }
    fixedWalls-bottom
    {
        beta1           0.075;
        blended         0;
        type            omegaWallFunction;
        value           nonuniform List<scalar> 4(61530.6 61530.6 61530.6 61530.6);
    }
    fixedWalls-top
    {
        type            symmetry;
    }
    frontAndBack
    {
        type            empty;
    }
}


// ************************************************************************* //
