/*--------------------------------*- C++ -*----------------------------------*\
  =========                 |
  \\      /  F ield         | OpenFOAM: The Open Source CFD Toolbox
   \\    /   O peration     | Website:  https://openfoam.org
    \\  /    A nd           | Version:  10
     \\/     M anipulation  |
\*---------------------------------------------------------------------------*/
FoamFile
{
    format      ascii;
    class       volScalarField;
    location    "144";
    object      p;
}
// * * * * * * * * * * * * * * * * * * * * * * * * * * * * * * * * * * * * * //

dimensions      [0 2 -2 0 0 0 0];

internalField   nonuniform List<scalar> 
200
(
-5.03295e-10
6.61615e-07
-4.95428e-07
-1.15908e-06
-1.88494e-09
6.60092e-07
-4.94032e-07
-1.15749e-06
-3.50563e-09
6.58319e-07
-4.92563e-07
-1.1557e-06
-5.23564e-09
6.57096e-07
-4.91131e-07
-1.15443e-06
-6.88648e-09
6.56211e-07
-4.89762e-07
-1.15351e-06
-8.50524e-09
6.5579e-07
-4.88384e-07
-1.15302e-06
-1.00114e-08
6.556e-07
-4.87079e-07
-1.15278e-06
-1.14508e-08
6.55834e-07
-4.85808e-07
-1.15293e-06
-1.2761e-08
6.56249e-07
-4.84658e-07
-1.15328e-06
-1.39792e-08
6.57016e-07
-4.83586e-07
-1.15396e-06
-1.50375e-08
6.57866e-07
-4.82678e-07
-1.15475e-06
-1.59598e-08
6.58932e-07
-4.81894e-07
-1.15574e-06
-1.66765e-08
6.59914e-07
-4.81319e-07
-1.15666e-06
-1.72054e-08
6.60893e-07
-4.80917e-07
-1.15757e-06
-1.74804e-08
6.61532e-07
-4.80771e-07
-1.15816e-06
-1.75175e-08
6.61845e-07
-4.80846e-07
-1.1584e-06
-1.72583e-08
6.61452e-07
-4.81219e-07
-1.15797e-06
-1.67187e-08
6.60286e-07
-4.81855e-07
-1.15674e-06
-1.58514e-08
6.57919e-07
-4.8282e-07
-1.15434e-06
-1.46752e-08
6.54197e-07
-4.84077e-07
-1.15057e-06
-1.31552e-08
6.48635e-07
-4.85675e-07
-1.14497e-06
-1.13215e-08
6.40996e-07
-4.87576e-07
-1.13729e-06
-9.14813e-09
6.30733e-07
-4.8981e-07
-1.12701e-06
-6.67715e-09
6.17528e-07
-4.92333e-07
-1.11377e-06
-3.88921e-09
6.00778e-07
-4.95158e-07
-1.097e-06
-8.49675e-10
5.8011e-07
-4.9824e-07
-1.07631e-06
2.4671e-09
5.54874e-07
-5.01573e-07
-1.05107e-06
5.97647e-09
5.24672e-07
-5.05115e-07
-1.02084e-06
9.71592e-09
4.88837e-07
-5.08845e-07
-9.85014e-07
1.35802e-08
4.47003e-07
-5.12738e-07
-9.43152e-07
1.76314e-08
3.98532e-07
-5.16761e-07
-8.94704e-07
2.17549e-08
3.43161e-07
-5.20911e-07
-8.39304e-07
2.60395e-08
2.80363e-07
-5.25154e-07
-7.76539e-07
3.03743e-08
2.10048e-07
-5.29518e-07
-7.06193e-07
3.48749e-08
1.31921e-07
-5.33975e-07
-6.28104e-07
3.94474e-08
4.61757e-08
-5.38584e-07
-5.42325e-07
4.42276e-08
-4.71201e-08
-5.43328e-07
-4.4907e-07
4.91454e-08
-1.47383e-07
-5.48295e-07
-3.48774e-07
5.43435e-08
-2.54016e-07
-5.53472e-07
-2.42186e-07
5.97603e-08
-3.65891e-07
-5.58965e-07
-1.30273e-07
6.5527e-08
-4.81727e-07
-5.64742e-07
-1.44766e-08
7.1565e-08
-5.99698e-07
-5.70885e-07
1.03531e-07
7.79357e-08
-7.17685e-07
-5.77305e-07
2.21483e-07
8.45088e-08
-8.33037e-07
-5.84013e-07
3.36868e-07
9.12753e-08
-9.42728e-07
-5.90879e-07
4.46544e-07
9.8091e-08
-1.04303e-06
-5.97829e-07
5.46852e-07
1.04612e-07
-1.12898e-06
-6.0446e-07
6.32792e-07
1.09711e-07
-1.19402e-06
-6.09648e-07
6.97813e-07
1.11744e-07
-1.23323e-06
-6.11722e-07
7.36984e-07
1.10738e-07
-1.25799e-06
-6.10752e-07
7.61706e-07
)
;

boundaryField
{
    inlet
    {
        type            cyclic;
    }
    outlet
    {
        type            cyclic;
    }
    fixedWalls-bottom
    {
        type            zeroGradient;
    }
    fixedWalls-top
    {
        type            symmetry;
    }
    frontAndBack
    {
        type            empty;
    }
}


// ************************************************************************* //
