/*--------------------------------*- C++ -*----------------------------------*\
  =========                 |
  \\      /  F ield         | OpenFOAM: The Open Source CFD Toolbox
   \\    /   O peration     | Website:  https://openfoam.org
    \\  /    A nd           | Version:  10
     \\/     M anipulation  |
\*---------------------------------------------------------------------------*/
FoamFile
{
    format      ascii;
    class       surfaceScalarField;
    location    "144";
    object      phi;
}
// * * * * * * * * * * * * * * * * * * * * * * * * * * * * * * * * * * * * * //

dimensions      [0 3 -1 0 0 0 0];

internalField   nonuniform List<scalar> 
346
(
0.000255435
3.23085e-10
0.000255436
-7.5034e-10
0.000255436
3.47213e-10
7.40017e-10
0.000790933
-9.43001e-10
0.000790934
-2.74317e-09
0.000790933
1.44562e-09
2.72586e-09
0.0013672
-3.00685e-09
0.0013672
-5.69361e-09
0.0013672
3.44348e-09
5.67091e-09
0.00198639
-5.96924e-09
0.00198639
-9.53735e-09
0.00198639
6.30806e-09
9.51554e-09
0.00265074
-9.86678e-09
0.00265074
-1.40333e-08
0.00265074
1.01648e-08
1.40088e-08
0.00336257
-1.47146e-08
0.00336258
-1.9101e-08
0.00336257
1.49557e-08
1.90849e-08
0.00412427
-2.06376e-08
0.00412428
-2.44232e-08
0.00412427
2.08529e-08
2.44053e-08
0.0049383
-2.7619e-08
0.0049383
-2.98851e-08
0.0049383
2.77979e-08
2.98827e-08
0.00580719
-3.58404e-08
0.00580719
-3.51135e-08
0.00580719
3.60046e-08
3.51059e-08
0.00673355
-4.52836e-08
0.00673355
-3.99671e-08
0.00673354
4.54205e-08
3.99813e-08
0.00772004
-5.61675e-08
0.00772004
-4.40412e-08
0.00772003
5.62963e-08
4.4047e-08
0.00876939
-6.84893e-08
0.00876939
-4.71823e-08
0.00876938
6.8593e-08
4.72161e-08
0.00988438
-8.24881e-08
0.00988439
-4.89834e-08
0.00988437
8.25908e-08
4.90029e-08
0.0110678
-9.81854e-08
0.0110678
-4.93043e-08
0.0110678
9.82619e-08
4.93573e-08
0.0123226
-1.15825e-07
0.0123226
-4.77671e-08
0.0123226
1.15905e-07
4.78011e-08
0.0136517
-1.35443e-07
0.0136517
-4.42756e-08
0.0136516
1.35493e-07
4.43491e-08
0.0150578
-1.57263e-07
0.0150578
-3.85136e-08
0.0150578
1.57324e-07
3.85608e-08
0.0165441
-1.81328e-07
0.0165441
-3.04616e-08
0.016544
1.81354e-07
3.05539e-08
0.0181133
-2.07814e-07
0.0181132
-1.98945e-08
0.0181132
2.07856e-07
1.99546e-08
0.0197683
-2.36738e-07
0.0197683
-6.8989e-09
0.0197682
2.3674e-07
7.01e-09
0.021512
-2.68192e-07
0.021512
8.63693e-09
0.0215119
2.68217e-07
-8.56654e-09
0.0233471
-3.02143e-07
0.0233471
2.64973e-08
0.023347
3.02123e-07
-2.63706e-08
0.0252763
-3.38559e-07
0.0252763
4.66681e-08
0.0252762
3.38568e-07
-4.6589e-08
0.0273021
-3.77316e-07
0.027302
6.8795e-08
0.027302
3.77274e-07
-6.86543e-08
0.0294268
-4.18219e-07
0.0294268
9.27379e-08
0.0294267
4.18216e-07
-9.26549e-08
0.0316527
-4.61024e-07
0.0316526
1.18008e-07
0.0316526
4.60967e-07
-1.17859e-07
0.0339816
-5.05341e-07
0.0339815
1.44353e-07
0.0339815
5.05331e-07
-1.4427e-07
0.0364151
-5.50774e-07
0.0364151
1.71168e-07
0.0364151
5.50704e-07
-1.71014e-07
0.0389546
-5.96708e-07
0.0389546
1.98116e-07
0.0389546
5.967e-07
-1.98044e-07
0.041601
-6.42581e-07
0.0416009
2.24513e-07
0.0416009
6.4251e-07
-2.24364e-07
0.0443545
-6.87548e-07
0.0443545
2.49975e-07
0.0443544
6.8755e-07
-2.49921e-07
0.0472151
-7.30865e-07
0.047215
2.73781e-07
0.047215
7.30799e-07
-2.73645e-07
0.0501819
-7.71466e-07
0.0501818
2.95547e-07
0.0501818
7.71489e-07
-2.95522e-07
0.0532534
-8.08431e-07
0.0532534
3.1458e-07
0.0532534
8.0838e-07
-3.14468e-07
0.0564273
-8.40501e-07
0.0564273
3.30541e-07
0.0564273
8.40547e-07
-3.30548e-07
0.0597002
-8.66598e-07
0.0597002
3.42814e-07
0.0597002
8.66556e-07
-3.42723e-07
0.0630678
-8.853e-07
0.0630678
3.51133e-07
0.0630678
8.85371e-07
-3.51173e-07
0.0665244
-8.95425e-07
0.0665244
3.55013e-07
0.0665244
8.95392e-07
-3.5494e-07
0.070063
-8.95424e-07
0.070063
3.5425e-07
0.070063
8.95539e-07
-3.54339e-07
0.073675
-8.84094e-07
0.073675
3.4848e-07
0.073675
8.8409e-07
-3.48446e-07
0.07735
-8.59842e-07
0.07735
3.37504e-07
0.07735
8.59995e-07
-3.37638e-07
0.0810757
-8.21551e-07
0.0810758
3.20994e-07
0.0810758
8.21586e-07
-3.21007e-07
0.0848377
-7.67825e-07
0.0848377
2.98644e-07
0.0848378
7.68008e-07
-2.98813e-07
0.0886188
-6.97948e-07
0.0886188
2.70029e-07
0.0886189
6.98042e-07
-2.7011e-07
0.0923992
-6.1136e-07
0.0923993
2.34713e-07
0.0923994
6.11511e-07
-2.34855e-07
0.0961561
-5.08571e-07
0.0961562
1.92373e-07
0.0961563
5.0866e-07
-1.92455e-07
0.0998631
-3.91197e-07
0.0998631
1.43392e-07
0.0998633
3.91251e-07
-1.43443e-07
0.10349
-2.62806e-07
0.10349
9.05307e-08
0.10349
2.62778e-07
-9.05013e-08
0.107002
-1.30226e-07
0.107002
4.42707e-08
0.107002
1.30203e-07
-4.42474e-08
0.11036
0.11036
0.11036
)
;

boundaryField
{
    inlet
    {
        type            cyclic;
        value           nonuniform List<scalar> 
50
(
-0.11036
-0.107002
-0.10349
-0.0998632
-0.0961562
-0.0923993
-0.0886189
-0.0848378
-0.0810758
-0.07735
-0.073675
-0.070063
-0.0665244
-0.0630678
-0.0597002
-0.0564273
-0.0532534
-0.0501818
-0.047215
-0.0443544
-0.0416009
-0.0389546
-0.0364151
-0.0339815
-0.0316526
-0.0294268
-0.027302
-0.0252762
-0.0233471
-0.0215119
-0.0197683
-0.0181132
-0.016544
-0.0150578
-0.0136516
-0.0123226
-0.0110678
-0.00988437
-0.00876938
-0.00772003
-0.00673354
-0.00580718
-0.00493829
-0.00412426
-0.00336257
-0.00265074
-0.00198638
-0.00136719
-0.000790931
-0.000255435
)
;
    }
    outlet
    {
        type            cyclic;
        value           nonuniform List<scalar> 
50
(
0.11036
0.107002
0.10349
0.0998632
0.0961562
0.0923993
0.0886189
0.0848378
0.0810758
0.07735
0.073675
0.070063
0.0665244
0.0630678
0.0597002
0.0564273
0.0532534
0.0501818
0.047215
0.0443544
0.0416009
0.0389546
0.0364151
0.0339815
0.0316526
0.0294268
0.027302
0.0252762
0.0233471
0.0215119
0.0197683
0.0181132
0.016544
0.0150578
0.0136516
0.0123226
0.0110678
0.00988437
0.00876938
0.00772003
0.00673354
0.00580718
0.00493829
0.00412426
0.00336257
0.00265074
0.00198638
0.00136719
0.000790931
0.000255435
)
;
    }
    fixedWalls-bottom
    {
        type            calculated;
        value           uniform 0;
    }
    fixedWalls-top
    {
        type            symmetry;
        value           uniform 0;
    }
    frontAndBack
    {
        type            empty;
        value           nonuniform List<scalar> 0();
    }
}


// ************************************************************************* //
