/*--------------------------------*- C++ -*----------------------------------*\
  =========                 |
  \\      /  F ield         | OpenFOAM: The Open Source CFD Toolbox
   \\    /   O peration     | Website:  https://openfoam.org
    \\  /    A nd           | Version:  10
     \\/     M anipulation  |
\*---------------------------------------------------------------------------*/
FoamFile
{
    format      ascii;
    class       volSymmTensorField;
    location    "144";
    object      R;
}
// * * * * * * * * * * * * * * * * * * * * * * * * * * * * * * * * * * * * * //

dimensions      [0 2 -2 0 0 0 0];

internalField   nonuniform List<symmTensor> 
200
(
(1.4803e-16 -1.08106e-20 -0 1.4803e-16 -0 1.4803e-16)
(1.4803e-16 -1.08106e-20 -0 1.4803e-16 -0 1.4803e-16)
(1.4803e-16 -1.08106e-20 -0 1.4803e-16 -0 1.4803e-16)
(1.4803e-16 -1.08106e-20 -0 1.4803e-16 -0 1.4803e-16)
(1.4803e-16 -6.58705e-20 -0 1.4803e-16 -0 1.4803e-16)
(1.4803e-16 -6.58706e-20 -0 1.4803e-16 -0 1.4803e-16)
(1.4803e-16 -6.58708e-20 -0 1.4803e-16 -0 1.4803e-16)
(1.4803e-16 -6.58704e-20 -0 1.4803e-16 -0 1.4803e-16)
(8.54379e-16 -1.15736e-18 -0 8.54379e-16 -0 8.54379e-16)
(8.54344e-16 -1.15731e-18 -0 8.54344e-16 -0 8.54344e-16)
(8.53467e-16 -1.15612e-18 -0 8.53467e-16 -0 8.53467e-16)
(8.53377e-16 -1.156e-18 -0 8.53377e-16 -0 8.53377e-16)
(3.04244e-15 -8.90383e-18 -0 3.04244e-15 -0 3.04244e-15)
(3.04233e-15 -8.90353e-18 -0 3.04233e-15 -0 3.04233e-15)
(3.03923e-15 -8.8945e-18 -0 3.03923e-15 -0 3.03923e-15)
(3.0389e-15 -8.89348e-18 -0 3.0389e-15 -0 3.0389e-15)
(7.73651e-15 -4.03334e-17 -0 7.73651e-15 -0 7.73651e-15)
(7.73627e-15 -4.03329e-17 -0 7.73627e-15 -0 7.73627e-15)
(7.72852e-15 -4.02933e-17 -0 7.72852e-15 -0 7.72852e-15)
(7.72765e-15 -4.02884e-17 -0 7.72765e-15 -0 7.72765e-15)
(1.61311e-14 -1.32566e-16 -0 1.61311e-14 -0 1.61311e-14)
(1.61307e-14 -1.3257e-16 -0 1.61307e-14 -0 1.61307e-14)
(1.61148e-14 -1.32445e-16 -0 1.61148e-14 -0 1.61148e-14)
(1.61129e-14 -1.32428e-16 -0 1.61129e-14 -0 1.61129e-14)
(2.95549e-14 -3.52521e-16 -0 2.95549e-14 -0 2.95549e-14)
(2.95544e-14 -3.52546e-16 -0 2.95544e-14 -0 2.95544e-14)
(2.95258e-14 -3.52227e-16 -0 2.95258e-14 -0 2.95258e-14)
(2.95223e-14 -3.5218e-16 -0 2.95223e-14 -0 2.95223e-14)
(4.94604e-14 -8.08361e-16 -0 4.94604e-14 -0 4.94604e-14)
(4.94597e-14 -8.08448e-16 -0 4.94597e-14 -0 4.94597e-14)
(4.94129e-14 -8.0774e-16 -0 4.94129e-14 -0 4.94129e-14)
(4.94072e-14 -8.07633e-16 -0 4.94072e-14 -0 4.94072e-14)
(7.73981e-14 -1.66351e-15 -0 7.73981e-14 -0 7.73981e-14)
(7.73976e-14 -1.66373e-15 -0 7.73976e-14 -0 7.73976e-14)
(7.73264e-14 -1.66231e-15 -0 7.73264e-14 -0 7.73264e-14)
(7.73177e-14 -1.6621e-15 -0 7.73177e-14 -0 7.73177e-14)
(1.14973e-13 -3.15354e-15 -0 1.14973e-13 -0 1.14973e-13)
(1.14974e-13 -3.15402e-15 -0 1.14974e-13 -0 1.14974e-13)
(1.14872e-13 -3.1514e-15 -0 1.14872e-13 -0 1.14872e-13)
(1.1486e-13 -3.15101e-15 -0 1.1486e-13 -0 1.1486e-13)
(1.63783e-13 -5.6014e-15 -0 1.63783e-13 -0 1.63783e-13)
(1.63789e-13 -5.6024e-15 -0 1.63789e-13 -0 1.63789e-13)
(1.63652e-13 -5.59795e-15 -0 1.63652e-13 -0 1.63652e-13)
(1.63636e-13 -5.5973e-15 -0 1.63636e-13 -0 1.63636e-13)
(2.25361e-13 -9.42656e-15 -0 2.25361e-13 -0 2.25361e-13)
(2.2538e-13 -9.42872e-15 -0 2.2538e-13 -0 2.2538e-13)
(2.25197e-13 -9.42153e-15 -0 2.25197e-13 -0 2.25197e-13)
(2.25177e-13 -9.42054e-15 -0 2.25177e-13 -0 2.25177e-13)
(3.01105e-13 -1.5149e-14 -0 3.01105e-13 -0 3.01105e-13)
(3.0115e-13 -1.51536e-14 -0 3.0115e-13 -0 3.0115e-13)
(3.00911e-13 -1.51426e-14 -0 3.00911e-13 -0 3.00911e-13)
(3.0089e-13 -1.51412e-14 -0 3.0089e-13 -0 3.0089e-13)
(3.92235e-13 -2.33866e-14 -0 3.92235e-13 -0 3.92235e-13)
(3.92327e-13 -2.33964e-14 -0 3.92327e-13 -0 3.92327e-13)
(3.92014e-13 -2.33801e-14 -0 3.92014e-13 -0 3.92014e-13)
(3.91997e-13 -2.33785e-14 -0 3.91997e-13 -0 3.91997e-13)
(4.99733e-13 -3.48419e-14 -0 4.99733e-13 -0 4.99733e-13)
(4.99904e-13 -3.48618e-14 -0 4.99904e-13 -0 4.99904e-13)
(4.99495e-13 -3.48387e-14 -0 4.99495e-13 -0 4.99495e-13)
(4.9949e-13 -3.48374e-14 -0 4.9949e-13 -0 4.9949e-13)
(6.243e-13 -5.02764e-14 -0 6.243e-13 -0 6.243e-13)
(6.24596e-13 -5.03147e-14 -0 6.24596e-13 -0 6.24596e-13)
(6.24059e-13 -5.02834e-14 -0 6.24059e-13 -0 6.24059e-13)
(6.2408e-13 -5.02836e-14 -0 6.2408e-13 -0 6.2408e-13)
(7.66319e-13 -7.0471e-14 -0 7.66319e-13 -0 7.66319e-13)
(7.66796e-13 -7.05409e-14 -0 7.66796e-13 -0 7.66796e-13)
(7.66043e-13 -7.04963e-14 -0 7.66042e-13 -0 7.66042e-13)
(7.66105e-13 -7.04999e-14 -0 7.66105e-13 -0 7.66105e-13)
(9.25853e-13 -9.61781e-14 -0 9.25854e-13 -0 9.25854e-13)
(9.26539e-13 -9.62945e-14 -0 9.26539e-13 -0 9.26539e-13)
(9.2543e-13 -9.62274e-14 -0 9.2543e-13 -0 9.2543e-13)
(9.25615e-13 -9.62447e-14 -0 9.25615e-13 -0 9.25615e-13)
(1.10259e-12 -1.28058e-13 -0 1.10259e-12 -0 1.10259e-12)
(1.10344e-12 -1.28232e-13 -0 1.10344e-12 -0 1.10344e-12)
(1.10181e-12 -1.28132e-13 -0 1.10181e-12 -0 1.10181e-12)
(1.1023e-12 -1.2819e-13 -0 1.1023e-12 -0 1.1023e-12)
(1.29578e-12 -1.66612e-13 -0 1.29578e-12 -0 1.29578e-12)
(1.29673e-12 -1.66851e-13 -0 1.29673e-12 -0 1.29673e-12)
(1.29436e-12 -1.66701e-13 -0 1.29436e-12 -0 1.29436e-12)
(1.29545e-12 -1.66853e-13 -0 1.29545e-12 -0 1.29545e-12)
(1.50431e-12 -2.12121e-13 -0 1.50431e-12 -0 1.50431e-12)
(1.50522e-12 -2.12425e-13 -0 1.50522e-12 -0 1.50522e-12)
(1.50182e-12 -2.12202e-13 -0 1.50182e-12 -0 1.50182e-12)
(1.50392e-12 -2.12532e-13 -0 1.50392e-12 -0 1.50392e-12)
(1.72667e-12 -2.64603e-13 -0 1.72667e-12 -0 1.72667e-12)
(1.72734e-12 -2.64954e-13 -0 1.72734e-12 -0 1.72734e-12)
(1.72253e-12 -2.64614e-13 -0 1.72252e-12 -0 1.72253e-12)
(1.72625e-12 -2.65267e-13 -0 1.72625e-12 -0 1.72625e-12)
(1.96066e-12 -3.23723e-13 -0 1.96066e-12 -0 1.96066e-12)
(1.96115e-12 -3.24132e-13 -0 1.96115e-12 -0 1.96115e-12)
(1.95442e-12 -3.23603e-13 -0 1.95442e-12 -0 1.95442e-12)
(1.96025e-12 -3.24742e-13 -0 1.96025e-12 -0 1.96025e-12)
(2.20402e-12 -3.88873e-13 -0 2.20402e-12 -0 2.20402e-12)
(2.20437e-12 -3.89344e-13 -0 2.20437e-12 -0 2.20437e-12)
(2.19508e-12 -3.88505e-13 -0 2.19508e-12 -0 2.19508e-12)
(2.20365e-12 -3.90368e-13 -0 2.20365e-12 -0 2.20365e-12)
(2.45408e-12 -4.59138e-13 -0 2.45408e-12 -0 2.45408e-12)
(2.45441e-12 -4.5968e-13 -0 2.45441e-12 -0 2.45441e-12)
(2.44177e-12 -4.58344e-13 -0 2.44177e-12 -0 2.44177e-12)
(2.45385e-12 -4.61246e-13 -0 2.45385e-12 -0 2.45385e-12)
(2.70783e-12 -5.33325e-13 -0 2.70783e-12 -0 2.70783e-12)
(2.70836e-12 -5.33966e-13 -0 2.70836e-12 -0 2.70836e-12)
(2.69151e-12 -5.31888e-13 -0 2.69151e-12 -0 2.69151e-12)
(2.70788e-12 -5.36187e-13 -0 2.70788e-12 -0 2.70788e-12)
(2.96202e-12 -6.10013e-13 -0 2.96202e-12 -0 2.96202e-12)
(2.96312e-12 -6.10815e-13 -0 2.96312e-12 -0 2.96312e-12)
(2.94117e-12 -6.07702e-13 -0 2.94117e-12 -0 2.94117e-12)
(2.9624e-12 -6.13743e-13 -0 2.9624e-12 -0 2.9624e-12)
(3.2132e-12 -6.87613e-13 -0 3.2132e-12 -0 3.2132e-12)
(3.21537e-12 -6.88661e-13 -0 3.21536e-12 -0 3.21536e-12)
(3.1875e-12 -6.84227e-13 -0 3.1875e-12 -0 3.1875e-12)
(3.21386e-12 -6.92273e-13 -0 3.21386e-12 -0 3.21386e-12)
(3.45783e-12 -7.6442e-13 -0 3.45783e-12 -0 3.45783e-12)
(3.4613e-12 -7.65756e-13 -0 3.4613e-12 -0 3.4613e-12)
(3.42724e-12 -7.59844e-13 -0 3.42724e-12 -0 3.42724e-12)
(3.45863e-12 -7.7001e-13 -0 3.45863e-12 -0 3.45863e-12)
(3.6924e-12 -8.38684e-13 -0 3.6924e-12 -0 3.6924e-12)
(3.69712e-12 -8.40288e-13 -0 3.69712e-12 -0 3.69712e-12)
(3.6571e-12 -8.32936e-13 -0 3.6571e-12 -0 3.6571e-12)
(3.69312e-12 -8.45128e-13 -0 3.69312e-12 -0 3.69312e-12)
(3.91361e-12 -9.08677e-13 -0 3.91361e-12 -0 3.91361e-12)
(3.91918e-12 -9.10455e-13 -0 3.91918e-12 -0 3.91918e-12)
(3.87387e-12 -9.01789e-13 -0 3.87387e-12 -0 3.87387e-12)
(3.91395e-12 -9.15858e-13 -0 3.91396e-12 -0 3.91396e-12)
(4.11848e-12 -9.72748e-13 -0 4.11849e-12 -0 4.11848e-12)
(4.12396e-12 -9.74488e-13 -0 4.12396e-12 -0 4.12396e-12)
(4.07453e-12 -9.6474e-13 -0 4.07452e-12 -0 4.07452e-12)
(4.11812e-12 -9.80524e-13 -0 4.11812e-12 -0 4.11812e-12)
(4.30451e-12 -1.02937e-12 -0 4.30451e-12 -0 4.30451e-12)
(4.3082e-12 -1.03067e-12 -0 4.3082e-12 -0 4.3082e-12)
(4.2563e-12 -1.02022e-12 -0 4.2563e-12 -0 4.2563e-12)
(4.30313e-12 -1.03759e-12 -0 4.30313e-12 -0 4.30313e-12)
(4.46961e-12 -1.07714e-12 -0 4.46962e-12 -0 4.46961e-12)
(4.46913e-12 -1.07743e-12 -0 4.46913e-12 -0 4.46913e-12)
(4.4168e-12 -1.06679e-12 -0 4.41679e-12 -0 4.4168e-12)
(4.46701e-12 -1.08569e-12 -0 4.46701e-12 -0 4.46701e-12)
(4.61257e-12 -1.11491e-12 -0 4.61258e-12 -0 4.61257e-12)
(4.60495e-12 -1.11345e-12 -0 4.60495e-12 -0 4.60495e-12)
(4.55397e-12 -1.10313e-12 -0 4.55397e-12 -0 4.55397e-12)
(4.60867e-12 -1.1237e-12 -0 4.60867e-12 -0 4.60867e-12)
(4.7331e-12 -1.14176e-12 -0 4.7331e-12 -0 4.7331e-12)
(4.71573e-12 -1.13794e-12 -0 4.71573e-12 -0 4.71573e-12)
(4.66603e-12 -1.128e-12 -0 4.66603e-12 -0 4.66603e-12)
(4.72872e-12 -1.15097e-12 -0 4.72872e-12 -0 4.72872e-12)
(4.83146e-12 -1.15696e-12 -0 4.83147e-12 -0 4.83146e-12)
(4.80075e-12 -1.15009e-12 -0 4.80074e-12 -0 4.80075e-12)
(4.75299e-12 -1.1406e-12 -0 4.75298e-12 -0 4.75298e-12)
(4.83127e-12 -1.16769e-12 -0 4.83127e-12 -0 4.83127e-12)
(4.88728e-12 -1.1549e-12 -0 4.88728e-12 -0 4.88728e-12)
(4.8609e-12 -1.14957e-12 -0 4.8609e-12 -0 4.8609e-12)
(4.81333e-12 -1.13977e-12 -0 4.81333e-12 -0 4.81333e-12)
(4.90055e-12 -1.16934e-12 -0 4.90055e-12 -0 4.90055e-12)
(4.91335e-12 -1.1379e-12 -0 4.91335e-12 -0 4.91335e-12)
(4.89423e-12 -1.13509e-12 -0 4.89423e-12 -0 4.89423e-12)
(4.84728e-12 -1.12493e-12 -0 4.84728e-12 -0 4.84728e-12)
(4.94047e-12 -1.15619e-12 -0 4.94047e-12 -0 4.94047e-12)
(4.91363e-12 -1.10588e-12 -0 4.91363e-12 -0 4.91363e-12)
(4.90104e-12 -1.10604e-12 -0 4.90104e-12 -0 4.90104e-12)
(4.85558e-12 -1.09579e-12 -0 4.85558e-12 -0 4.85558e-12)
(4.95304e-12 -1.12799e-12 -0 4.95304e-12 -0 4.95304e-12)
(4.88987e-12 -1.06026e-12 -0 4.88986e-12 -0 4.88986e-12)
(4.88277e-12 -1.06188e-12 -0 4.88278e-12 -0 4.88277e-12)
(4.83962e-12 -1.05235e-12 -0 4.83963e-12 -0 4.83962e-12)
(4.93969e-12 -1.08421e-12 -0 4.93969e-12 -0 4.93969e-12)
(4.84299e-12 -1.00001e-12 -0 4.84299e-12 -0 4.84299e-12)
(4.8421e-12 -1.00281e-12 -0 4.8421e-12 -0 4.8421e-12)
(4.80147e-12 -9.94375e-13 -0 4.80148e-12 -0 4.80147e-12)
(4.90159e-12 -1.02455e-12 -0 4.90159e-12 -0 4.90159e-12)
(4.77657e-12 -9.25734e-13 -0 4.77656e-12 -0 4.77657e-12)
(4.78254e-12 -9.28966e-13 -0 4.78254e-12 -0 4.78254e-12)
(4.74389e-12 -9.21796e-13 -0 4.7439e-12 -0 4.74389e-12)
(4.83924e-12 -9.48907e-13 -0 4.83924e-12 -0 4.83924e-12)
(4.69856e-12 -8.36396e-13 -0 4.69855e-12 -0 4.69856e-12)
(4.70794e-12 -8.41707e-13 -0 4.70795e-12 -0 4.70794e-12)
(4.67032e-12 -8.34122e-13 -0 4.67033e-12 -0 4.67032e-12)
(4.7512e-12 -8.57312e-13 -0 4.7512e-12 -0 4.7512e-12)
(4.6125e-12 -7.35482e-13 -0 4.61248e-12 -0 4.61249e-12)
(4.62177e-12 -7.40346e-13 -0 4.62177e-12 -0 4.62177e-12)
(4.58496e-12 -7.33456e-13 -0 4.58497e-12 -0 4.58496e-12)
(4.63127e-12 -7.48975e-13 -0 4.63127e-12 -0 4.63127e-12)
(4.51791e-12 -6.22094e-13 -0 4.51789e-12 -0 4.5179e-12)
(4.52817e-12 -6.26371e-13 -0 4.52818e-12 -0 4.52817e-12)
(4.49258e-12 -6.2072e-13 -0 4.49259e-12 -0 4.49258e-12)
(4.52254e-12 -6.31632e-13 -0 4.52254e-12 -0 4.52254e-12)
(4.42234e-12 -4.97693e-13 -0 4.42232e-12 -0 4.42233e-12)
(4.43229e-12 -5.00791e-13 -0 4.4323e-12 -0 4.43229e-12)
(4.3983e-12 -4.96549e-13 -0 4.39832e-12 -0 4.39831e-12)
(4.42274e-12 -5.04775e-13 -0 4.42274e-12 -0 4.42274e-12)
(4.33169e-12 -3.63742e-13 -0 4.33167e-12 -0 4.33168e-12)
(4.33968e-12 -3.65122e-13 -0 4.33969e-12 -0 4.33969e-12)
(4.30762e-12 -3.62698e-13 -0 4.30764e-12 -0 4.30763e-12)
(4.33523e-12 -3.68752e-13 -0 4.33523e-12 -0 4.33523e-12)
(4.25075e-12 -2.20547e-13 -0 4.25073e-12 -0 4.25074e-12)
(4.25589e-12 -2.2184e-13 -0 4.2559e-12 -0 4.2559e-12)
(4.22614e-12 -2.20017e-13 -0 4.22616e-12 -0 4.22615e-12)
(4.26831e-12 -2.24803e-13 -0 4.2683e-12 -0 4.2683e-12)
(4.18265e-12 -7.3623e-14 -0 4.18263e-12 -0 4.18264e-12)
(4.18601e-12 -7.39173e-14 -0 4.18602e-12 -0 4.18601e-12)
(4.1597e-12 -7.34092e-14 -0 4.15972e-12 -0 4.15971e-12)
(4.23749e-12 -7.56347e-14 -0 4.23749e-12 -0 4.23749e-12)
)
;

boundaryField
{
    inlet
    {
        type            cyclic;
    }
    outlet
    {
        type            cyclic;
    }
    fixedWalls-bottom
    {
        type            kqRWallFunction;
        value           uniform (1.4803e-16 -0 -0 1.4803e-16 -0 1.4803e-16);
    }
    fixedWalls-top
    {
        type            symmetry;
    }
    frontAndBack
    {
        type            empty;
    }
}


// ************************************************************************* //
