/*--------------------------------*- C++ -*----------------------------------*\
  =========                 |
  \\      /  F ield         | OpenFOAM: The Open Source CFD Toolbox
   \\    /   O peration     | Website:  https://openfoam.org
    \\  /    A nd           | Version:  10
     \\/     M anipulation  |
\*---------------------------------------------------------------------------*/
FoamFile
{
    format      ascii;
    class       volVectorField;
    location    "144";
    object      U;
}
// * * * * * * * * * * * * * * * * * * * * * * * * * * * * * * * * * * * * * //

dimensions      [0 1 -1 0 0 0 0];

internalField   nonuniform List<vector> 
200
(
(0.0138631 -3.38952e-11 0)
(0.0138631 -2.21453e-10 0)
(0.0138632 -6.47614e-12 0)
(0.0138631 2.23126e-10 0)
(0.0417285 1.84686e-10 0)
(0.0417286 -1.50457e-09 0)
(0.0417287 7.58423e-10 0)
(0.0417284 1.48338e-09 0)
(0.0701192 -1.78906e-09 0)
(0.0701193 -4.00414e-09 0)
(0.0701195 2.24071e-09 0)
(0.0701191 3.98438e-09 0)
(0.0990337 -4.27164e-09 0)
(0.0990338 -7.43379e-09 0)
(0.0990341 4.66792e-09 0)
(0.0990336 7.41284e-09 0)
(0.128469 -7.69933e-09 0)
(0.12847 -1.16589e-08 0)
(0.12847 8.02459e-09 0)
(0.128469 1.16372e-08 0)
(0.158423 -1.20681e-08 0)
(0.158423 -1.64966e-08 0)
(0.158423 1.2342e-08 0)
(0.158422 1.64773e-08 0)
(0.188889 -1.74474e-08 0)
(0.188889 -2.17504e-08 0)
(0.188889 1.7676e-08 0)
(0.188888 2.17339e-08 0)
(0.219861 -2.38917e-08 0)
(0.219862 -2.7202e-08 0)
(0.219862 2.40872e-08 0)
(0.219861 2.71921e-08 0)
(0.251334 -3.14804e-08 0)
(0.251334 -3.26113e-08 0)
(0.251334 3.16494e-08 0)
(0.251333 3.26063e-08 0)
(0.283297 -4.02987e-08 0)
(0.283297 -3.77148e-08 0)
(0.283297 4.0447e-08 0)
(0.283296 3.7718e-08 0)
(0.315741 -5.04438e-08 0)
(0.315741 -4.22436e-08 0)
(0.315741 5.05747e-08 0)
(0.31574 4.22536e-08 0)
(0.348653 -6.2028e-08 0)
(0.348653 -4.59111e-08 0)
(0.348653 6.21433e-08 0)
(0.348652 4.59306e-08 0)
(0.382021 -7.51663e-08 0)
(0.382021 -4.84413e-08 0)
(0.382021 7.52688e-08 0)
(0.382019 4.8468e-08 0)
(0.415828 -8.99936e-08 0)
(0.415827 -4.95525e-08 0)
(0.415828 9.00833e-08 0)
(0.415826 4.95885e-08 0)
(0.450057 -1.06639e-07 0)
(0.450056 -4.89902e-08 0)
(0.450057 1.06718e-07 0)
(0.450055 4.90339e-08 0)
(0.484688 -1.25249e-07 0)
(0.484688 -4.65089e-08 0)
(0.484688 1.25314e-07 0)
(0.484686 4.65623e-08 0)
(0.519699 -1.4595e-07 0)
(0.519699 -4.19074e-08 0)
(0.519699 1.46005e-07 0)
(0.519697 4.1968e-08 0)
(0.555066 -1.6888e-07 0)
(0.555066 -3.50094e-08 0)
(0.555066 1.68924e-07 0)
(0.555064 3.50787e-08 0)
(0.590762 -1.94148e-07 0)
(0.590761 -2.56981e-08 0)
(0.590761 1.94182e-07 0)
(0.590759 2.57748e-08 0)
(0.626755 -2.21854e-07 0)
(0.626754 -1.38967e-08 0)
(0.626754 2.21877e-07 0)
(0.626753 1.39818e-08 0)
(0.663013 -2.52054e-07 0)
(0.663013 4.01468e-10 0)
(0.663012 2.52067e-07 0)
(0.663011 -3.10138e-10 0)
(0.6995 -2.8478e-07 0)
(0.699499 1.7151e-08 0)
(0.699499 2.84783e-07 0)
(0.699497 -1.70532e-08 0)
(0.736175 -3.2e-07 0)
(0.736174 3.62306e-08 0)
(0.736174 3.19995e-07 0)
(0.736172 -3.61268e-08 0)
(0.772995 -3.5764e-07 0)
(0.772994 5.74609e-08 0)
(0.772993 3.57625e-07 0)
(0.772992 -5.73518e-08 0)
(0.809911 -3.97542e-07 0)
(0.80991 8.05881e-08 0)
(0.809909 3.97519e-07 0)
(0.809908 -8.04751e-08 0)
(0.846871 -4.39486e-07 0)
(0.846871 1.05301e-07 0)
(0.84687 4.39458e-07 0)
(0.846868 -1.05186e-07 0)
(0.88382 -4.8316e-07 0)
(0.883819 1.31222e-07 0)
(0.883818 4.83125e-07 0)
(0.883817 -1.31104e-07 0)
(0.920694 -5.28166e-07 0)
(0.920693 1.57925e-07 0)
(0.920692 5.28127e-07 0)
(0.920691 -1.57807e-07 0)
(0.957427 -5.74004e-07 0)
(0.957426 1.84931e-07 0)
(0.957425 5.73964e-07 0)
(0.957424 -1.84815e-07 0)
(0.993946 -6.20081e-07 0)
(0.993945 2.1173e-07 0)
(0.993945 6.20043e-07 0)
(0.993943 -2.1162e-07 0)
(1.03017 -6.65698e-07 0)
(1.03017 2.3778e-07 0)
(1.03017 6.65662e-07 0)
(1.03017 -2.37676e-07 0)
(1.06602 -7.10054e-07 0)
(1.06602 2.62531e-07 0)
(1.06602 7.10023e-07 0)
(1.06602 -2.62437e-07 0)
(1.1014 -7.52246e-07 0)
(1.1014 2.85419e-07 0)
(1.1014 7.52223e-07 0)
(1.1014 -2.85336e-07 0)
(1.13621 -7.91276e-07 0)
(1.13621 3.0591e-07 0)
(1.13621 7.91262e-07 0)
(1.13621 -3.05842e-07 0)
(1.17034 -8.26054e-07 0)
(1.17034 3.23476e-07 0)
(1.17034 8.2605e-07 0)
(1.17034 -3.23421e-07 0)
(1.20369 -8.55407e-07 0)
(1.20369 3.37647e-07 0)
(1.20369 8.55409e-07 0)
(1.20369 -3.37605e-07 0)
(1.23611 -8.78083e-07 0)
(1.23611 3.47969e-07 0)
(1.23611 8.78095e-07 0)
(1.23611 -3.47941e-07 0)
(1.26749 -8.92774e-07 0)
(1.26749 3.54079e-07 0)
(1.26749 8.92793e-07 0)
(1.26749 -3.54064e-07 0)
(1.29767 -8.98113e-07 0)
(1.29767 3.55622e-07 0)
(1.29767 8.98151e-07 0)
(1.29767 -3.55629e-07 0)
(1.32651 -8.92716e-07 0)
(1.32651 3.5233e-07 0)
(1.32651 8.92772e-07 0)
(1.32651 -3.5236e-07 0)
(1.35383 -8.75176e-07 0)
(1.35383 3.43918e-07 0)
(1.35383 8.7525e-07 0)
(1.35383 -3.43967e-07 0)
(1.37945 -8.44125e-07 0)
(1.37945 3.30143e-07 0)
(1.37945 8.44221e-07 0)
(1.37945 -3.30219e-07 0)
(1.40319 -7.98284e-07 0)
(1.40319 3.10696e-07 0)
(1.4032 7.98394e-07 0)
(1.4032 -3.10787e-07 0)
(1.42485 -7.36564e-07 0)
(1.42485 2.85213e-07 0)
(1.42485 7.36706e-07 0)
(1.42485 -2.8534e-07 0)
(1.44419 -6.58249e-07 0)
(1.44419 2.53174e-07 0)
(1.44419 6.58375e-07 0)
(1.44419 -2.53288e-07 0)
(1.46098 -5.63149e-07 0)
(1.46098 2.13961e-07 0)
(1.46098 5.6327e-07 0)
(1.46099 -2.14075e-07 0)
(1.47498 -4.52081e-07 0)
(1.47498 1.67448e-07 0)
(1.47498 4.52153e-07 0)
(1.47498 -1.67516e-07 0)
(1.48591 -3.27753e-07 0)
(1.48591 1.1604e-07 0)
(1.48591 3.27765e-07 0)
(1.48591 -1.16049e-07 0)
(1.49348 -1.95582e-07 0)
(1.49348 6.79391e-08 0)
(1.49348 1.95549e-07 0)
(1.49348 -6.79192e-08 0)
(1.49738 -6.47875e-08 0)
(1.49738 2.20722e-08 0)
(1.49738 6.47806e-08 0)
(1.49738 -2.20509e-08 0)
)
;

boundaryField
{
    inlet
    {
        type            cyclic;
    }
    outlet
    {
        type            cyclic;
    }
    fixedWalls-bottom
    {
        type            noSlip;
    }
    fixedWalls-top
    {
        type            symmetry;
    }
    frontAndBack
    {
        type            empty;
    }
}


// ************************************************************************* //
