/*--------------------------------*- C++ -*----------------------------------*\
  =========                 |
  \\      /  F ield         | OpenFOAM: The Open Source CFD Toolbox
   \\    /   O peration     | Website:  https://openfoam.org
    \\  /    A nd           | Version:  10
     \\/     M anipulation  |
\*---------------------------------------------------------------------------*/
FoamFile
{
    format      ascii;
    class       volScalarField;
    location    "2500";
    object      k;
}
// * * * * * * * * * * * * * * * * * * * * * * * * * * * * * * * * * * * * * //

dimensions      [0 2 -2 0 0 0 0];

internalField   nonuniform List<scalar> 
400
(
3.80757e-11
3.80338e-11
3.80442e-11
3.80525e-11
1.14214e-09
1.14089e-09
1.1412e-09
1.14145e-09
8.08768e-09
8.07879e-09
8.08098e-09
8.08276e-09
2.94003e-08
2.9368e-08
2.9376e-08
2.93824e-08
7.6063e-08
7.59793e-08
7.6e-08
7.60166e-08
1.61062e-07
1.60884e-07
1.60928e-07
1.60963e-07
2.99276e-07
2.98947e-07
2.99028e-07
2.99093e-07
5.07481e-07
5.06923e-07
5.07061e-07
5.07171e-07
8.0439e-07
8.03505e-07
8.03725e-07
8.03897e-07
1.2107e-06
1.20936e-06
1.2097e-06
1.20995e-06
1.74907e-06
1.74715e-06
1.74763e-06
1.74799e-06
2.44405e-06
2.44137e-06
2.44204e-06
2.44254e-06
3.32174e-06
3.3181e-06
3.31901e-06
3.31968e-06
4.40923e-06
4.4044e-06
4.40562e-06
4.40648e-06
5.73369e-06
5.72744e-06
5.72903e-06
5.73012e-06
7.32121e-06
7.31327e-06
7.31531e-06
7.31666e-06
9.1953e-06
9.18541e-06
9.18799e-06
9.18962e-06
1.13753e-05
1.13632e-05
1.13664e-05
1.13684e-05
1.3875e-05
1.38605e-05
1.38644e-05
1.38667e-05
1.67012e-05
1.66841e-05
1.66889e-05
1.66915e-05
1.98533e-05
1.98335e-05
1.98393e-05
1.98421e-05
2.33228e-05
2.33003e-05
2.33071e-05
2.33102e-05
2.70939e-05
2.70687e-05
2.70768e-05
2.70801e-05
3.11443e-05
3.11165e-05
3.11259e-05
3.11294e-05
3.54459e-05
3.54157e-05
3.54267e-05
3.54303e-05
3.99661e-05
3.99339e-05
3.99466e-05
3.99502e-05
4.46678e-05
4.46339e-05
4.46485e-05
4.46519e-05
4.9509e-05
4.94739e-05
4.94905e-05
4.94937e-05
5.44403e-05
5.44046e-05
5.44234e-05
5.44262e-05
5.94053e-05
5.93692e-05
5.93904e-05
5.93927e-05
6.43722e-05
6.43359e-05
6.43598e-05
6.43614e-05
6.93114e-05
6.92751e-05
6.93017e-05
6.93027e-05
7.41953e-05
7.41592e-05
7.41885e-05
7.4189e-05
7.89985e-05
7.89626e-05
7.89948e-05
7.89948e-05
8.36971e-05
8.36617e-05
8.36967e-05
8.36963e-05
8.82689e-05
8.82339e-05
8.82718e-05
8.82708e-05
9.27294e-05
9.2694e-05
9.27345e-05
9.27332e-05
9.71042e-05
9.70679e-05
9.71108e-05
9.71093e-05
0.000101411
0.000101373
0.000101418
0.000101417
0.00010566
0.00010562
0.000105668
0.000105666
0.000109858
0.000109817
0.000109866
0.000109865
0.000114008
0.000113964
0.000114016
0.000114015
0.00011811
0.000118064
0.000118118
0.000118117
0.000122162
0.000122113
0.00012217
0.000122169
0.00012616
0.00012611
0.000126169
0.000126167
0.000130102
0.000130048
0.00013011
0.000130109
0.00013398
0.000133923
0.000133988
0.000133987
0.000137789
0.00013773
0.000137798
0.000137797
0.000141524
0.000141462
0.000141533
0.000141531
0.000145176
0.000145111
0.000145186
0.000145184
0.000148739
0.000148671
0.000148749
0.000148747
0.000152205
0.000152133
0.000152215
0.000152213
0.000155566
0.00015549
0.000155576
0.000155574
0.000158812
0.000158733
0.000158823
0.000158821
0.000161936
0.000161852
0.000161948
0.000161945
0.000164927
0.000164839
0.00016494
0.000164937
0.000167776
0.000167684
0.00016779
0.000167786
0.000170472
0.000170376
0.000170487
0.000170483
0.000173005
0.000172904
0.00017302
0.000173017
0.000175364
0.000175258
0.000175378
0.000175377
0.000177536
0.000177425
0.00017755
0.00017755
0.000179509
0.000179393
0.000179524
0.000179524
0.00018127
0.000181149
0.000181285
0.000181287
0.000182806
0.000182681
0.000182822
0.000182825
0.000184104
0.000183974
0.000184118
0.000184124
0.000185148
0.000185014
0.000185161
0.00018517
0.000185925
0.000185786
0.000185935
0.000185948
0.000186418
0.000186276
0.000186425
0.000186443
0.000186613
0.000186468
0.000186616
0.000186639
0.000186493
0.000186347
0.000186493
0.000186521
0.000186045
0.000185898
0.000186041
0.000186073
0.000185251
0.000185105
0.000185243
0.00018528
0.000184098
0.000183954
0.000184086
0.000184128
0.000182572
0.000182431
0.000182555
0.000182602
0.000180658
0.000180523
0.000180637
0.000180688
0.000178344
0.000178217
0.000178319
0.000178372
0.000175616
0.0001755
0.000175585
0.000175642
0.000172459
0.000172356
0.000172421
0.000172481
0.000168853
0.000168767
0.000168805
0.00016887
0.00016477
0.000164703
0.000164707
0.000164781
0.000160168
0.000160122
0.000160087
0.000160169
0.000155
0.000154968
0.000154904
0.000154994
0.00014929
0.000149266
0.000149183
0.000149282
0.000143072
0.000143054
0.000142955
0.000143065
0.000136403
0.000136387
0.000136275
0.000136391
0.000129349
0.000129334
0.000129212
0.000129329
0.000121991
0.000121978
0.000121847
0.000121963
0.000114421
0.00011441
0.000114271
0.000114383
0.000106807
0.000106798
0.000106656
0.00010676
9.93131e-05
9.93071e-05
9.91633e-05
9.92559e-05
9.20817e-05
9.20781e-05
9.19342e-05
9.20138e-05
8.5239e-05
8.5237e-05
8.50938e-05
8.51598e-05
7.88976e-05
7.88957e-05
7.87537e-05
7.88065e-05
7.31517e-05
7.3152e-05
7.30115e-05
7.30517e-05
6.80846e-05
6.80883e-05
6.79496e-05
6.7979e-05
6.37647e-05
6.3772e-05
6.36352e-05
6.36566e-05
6.02455e-05
6.02558e-05
6.01213e-05
6.01372e-05
5.7568e-05
5.75805e-05
5.7448e-05
5.74607e-05
5.57635e-05
5.57773e-05
5.56464e-05
5.56574e-05
5.48495e-05
5.48638e-05
5.47338e-05
5.4744e-05
)
;

boundaryField
{
    inlet
    {
        type            cyclic;
    }
    outlet
    {
        type            cyclic;
    }
    fixedWalls-bottom
    {
        type            kqRWallFunction;
        value           nonuniform List<scalar> 4(3.80757e-11 3.80338e-11 3.80442e-11 3.80525e-11);
    }
    fixedWalls-top
    {
        type            symmetry;
    }
    frontAndBack
    {
        type            empty;
    }
}


// ************************************************************************* //
