/*--------------------------------*- C++ -*----------------------------------*\
  =========                 |
  \\      /  F ield         | OpenFOAM: The Open Source CFD Toolbox
   \\    /   O peration     | Website:  https://openfoam.org
    \\  /    A nd           | Version:  10
     \\/     M anipulation  |
\*---------------------------------------------------------------------------*/
FoamFile
{
    format      ascii;
    class       volScalarField;
    location    "2500";
    object      nut;
}
// * * * * * * * * * * * * * * * * * * * * * * * * * * * * * * * * * * * * * //

dimensions      [0 2 -1 0 0 0 0];

internalField   nonuniform List<scalar> 
400
(
1.26641e-16
1.26502e-16
1.26536e-16
1.26564e-16
2.22066e-14
2.21822e-14
2.21882e-14
2.21931e-14
4.6746e-13
4.66947e-13
4.67073e-13
4.67176e-13
3.6178e-12
3.61382e-12
3.6148e-12
3.6156e-12
1.65497e-11
1.65315e-11
1.6536e-11
1.65397e-11
5.52472e-11
5.51863e-11
5.52013e-11
5.52136e-11
1.49876e-10
1.4971e-10
1.49751e-10
1.49785e-10
3.51338e-10
3.5095e-10
3.51045e-10
3.51125e-10
7.394e-10
7.38579e-10
7.38782e-10
7.38953e-10
1.43311e-09
1.43151e-09
1.43191e-09
1.43225e-09
2.60511e-09
2.60219e-09
2.60291e-09
2.60355e-09
4.5028e-09
4.4977e-09
4.49896e-09
4.50009e-09
7.48113e-09
7.47252e-09
7.47462e-09
7.47657e-09
1.20541e-08
1.20398e-08
1.20432e-08
1.20465e-08
1.89748e-08
1.89514e-08
1.89569e-08
1.89622e-08
2.93602e-08
2.93219e-08
2.93304e-08
2.93389e-08
4.48819e-08
4.48192e-08
4.48323e-08
4.48457e-08
6.80627e-08
6.79591e-08
6.79792e-08
6.80003e-08
1.02735e-07
1.02562e-07
1.02593e-07
1.02626e-07
1.54754e-07
1.54464e-07
1.54511e-07
1.54565e-07
2.33124e-07
2.32635e-07
2.32705e-07
2.32792e-07
3.51761e-07
3.5093e-07
3.51035e-07
3.51179e-07
5.32297e-07
5.30876e-07
5.31033e-07
5.31275e-07
8.08504e-07
8.06065e-07
8.0629e-07
8.06713e-07
1.2333e-06
1.22909e-06
1.22945e-06
1.23017e-06
1.88967e-06
1.88246e-06
1.88299e-06
1.88421e-06
2.90733e-06
2.89506e-06
2.89578e-06
2.89786e-06
4.48677e-06
4.4663e-06
4.46696e-06
4.47051e-06
6.68642e-06
6.68202e-06
6.68434e-06
6.68468e-06
7.35806e-06
7.35357e-06
7.35621e-06
7.35649e-06
8.04221e-06
8.03766e-06
8.04065e-06
8.04085e-06
8.73585e-06
8.73127e-06
8.73462e-06
8.73475e-06
9.436e-06
9.4314e-06
9.43514e-06
9.4352e-06
1.01398e-05
1.01352e-05
1.01394e-05
1.01394e-05
1.08447e-05
1.08401e-05
1.08446e-05
1.08446e-05
1.15479e-05
1.15433e-05
1.15483e-05
1.15482e-05
1.22518e-05
1.22471e-05
1.22525e-05
1.22523e-05
1.29602e-05
1.29553e-05
1.29611e-05
1.29609e-05
1.36758e-05
1.36707e-05
1.36768e-05
1.36766e-05
1.44006e-05
1.43953e-05
1.44017e-05
1.44015e-05
1.51363e-05
1.51306e-05
1.51374e-05
1.51372e-05
1.58839e-05
1.58778e-05
1.5885e-05
1.58848e-05
1.66441e-05
1.66376e-05
1.66453e-05
1.66451e-05
1.74176e-05
1.74107e-05
1.74188e-05
1.74186e-05
1.82047e-05
1.81974e-05
1.8206e-05
1.82057e-05
1.90058e-05
1.8998e-05
1.90071e-05
1.90068e-05
1.9821e-05
1.98127e-05
1.98223e-05
1.98221e-05
2.06504e-05
2.06416e-05
2.06518e-05
2.06515e-05
2.14942e-05
2.14848e-05
2.14956e-05
2.14953e-05
2.23523e-05
2.23422e-05
2.23537e-05
2.23535e-05
2.32247e-05
2.3214e-05
2.32262e-05
2.32259e-05
2.41114e-05
2.41e-05
2.4113e-05
2.41127e-05
2.50122e-05
2.5e-05
2.50139e-05
2.50136e-05
2.5927e-05
2.5914e-05
2.59288e-05
2.59284e-05
2.68556e-05
2.68418e-05
2.68576e-05
2.68571e-05
2.77978e-05
2.7783e-05
2.77999e-05
2.77994e-05
2.87531e-05
2.87374e-05
2.87555e-05
2.87549e-05
2.97214e-05
2.97046e-05
2.97239e-05
2.97233e-05
3.0702e-05
3.0684e-05
3.07046e-05
3.07041e-05
3.16944e-05
3.16753e-05
3.16971e-05
3.16968e-05
3.2698e-05
3.26776e-05
3.27007e-05
3.27006e-05
3.3712e-05
3.36902e-05
3.37148e-05
3.37149e-05
3.47354e-05
3.47122e-05
3.47383e-05
3.47387e-05
3.57672e-05
3.57427e-05
3.57702e-05
3.57709e-05
3.68063e-05
3.67803e-05
3.68091e-05
3.68103e-05
3.78512e-05
3.78237e-05
3.78538e-05
3.78557e-05
3.89004e-05
3.88715e-05
3.89025e-05
3.89053e-05
3.99522e-05
3.99218e-05
3.99537e-05
3.99575e-05
4.10045e-05
4.09728e-05
4.10053e-05
4.10102e-05
4.20552e-05
4.20222e-05
4.20552e-05
4.20614e-05
4.3102e-05
4.3068e-05
4.3101e-05
4.31086e-05
4.41423e-05
4.41074e-05
4.41403e-05
4.41493e-05
4.51733e-05
4.51379e-05
4.51703e-05
4.51807e-05
4.61923e-05
4.61568e-05
4.61882e-05
4.61999e-05
4.71961e-05
4.71609e-05
4.71907e-05
4.72038e-05
4.81812e-05
4.8147e-05
4.81743e-05
4.81888e-05
4.91436e-05
4.91112e-05
4.9135e-05
4.9151e-05
5.00783e-05
5.00486e-05
5.00674e-05
5.0085e-05
5.0978e-05
5.0952e-05
5.09635e-05
5.09833e-05
5.18313e-05
5.18102e-05
5.18114e-05
5.18345e-05
5.262e-05
5.2605e-05
5.25935e-05
5.26202e-05
5.33212e-05
5.33103e-05
5.32885e-05
5.33193e-05
5.39326e-05
5.39243e-05
5.38941e-05
5.39298e-05
5.4455e-05
5.44483e-05
5.44106e-05
5.44524e-05
5.48976e-05
5.48916e-05
5.48465e-05
5.4893e-05
5.52764e-05
5.52705e-05
5.52184e-05
5.52683e-05
5.56092e-05
5.56033e-05
5.55433e-05
5.55962e-05
4.32591e-05
4.29925e-05
4.23364e-05
4.30072e-05
3.10147e-05
3.09476e-05
3.05028e-05
3.09384e-05
2.28452e-05
2.27779e-05
2.24815e-05
2.27554e-05
1.72133e-05
1.71804e-05
1.6966e-05
1.71423e-05
1.32997e-05
1.32859e-05
1.3124e-05
1.32418e-05
1.05502e-05
1.0546e-05
1.04187e-05
1.05011e-05
8.60345e-06
8.60378e-06
8.49998e-06
8.56114e-06
7.22257e-06
7.22488e-06
7.13742e-06
7.18605e-06
6.25068e-06
6.25357e-06
6.17773e-06
6.21929e-06
5.58314e-06
5.58511e-06
5.51806e-06
5.55598e-06
5.15159e-06
5.1526e-06
5.09172e-06
5.12833e-06
4.95343e-06
4.95323e-06
4.89487e-06
4.93209e-06
4.93758e-06
4.93603e-06
4.87748e-06
4.91635e-06
)
;

boundaryField
{
    inlet
    {
        type            cyclic;
    }
    outlet
    {
        type            cyclic;
    }
    fixedWalls-bottom
    {
        type            nutkWallFunction;
        Cmu             0.09;
        kappa           0.41;
        E               9.8;
        value           uniform 0;
    }
    fixedWalls-top
    {
        type            symmetry;
    }
    frontAndBack
    {
        type            empty;
    }
}


// ************************************************************************* //
