/*--------------------------------*- C++ -*----------------------------------*\
  =========                 |
  \\      /  F ield         | OpenFOAM: The Open Source CFD Toolbox
   \\    /   O peration     | Website:  https://openfoam.org
    \\  /    A nd           | Version:  10
     \\/     M anipulation  |
\*---------------------------------------------------------------------------*/
FoamFile
{
    format      ascii;
    class       volSymmTensorField;
    location    "2500";
    object      R;
}
// * * * * * * * * * * * * * * * * * * * * * * * * * * * * * * * * * * * * * //

dimensions      [0 2 -2 0 0 0 0];

internalField   nonuniform List<symmTensor> 
400
(
(2.53838e-11 -3.80784e-16 -0 2.53838e-11 -0 2.53838e-11)
(2.53559e-11 -3.80366e-16 -0 2.53559e-11 -0 2.53559e-11)
(2.53628e-11 -3.80469e-16 -0 2.53628e-11 -0 2.53628e-11)
(2.53683e-11 -3.80552e-16 -0 2.53683e-11 -0 2.53683e-11)
(7.61429e-10 -6.64608e-14 -0 7.61429e-10 -0 7.61429e-10)
(7.60592e-10 -6.63877e-14 -0 7.60592e-10 -0 7.60592e-10)
(7.60798e-10 -6.64058e-14 -0 7.60798e-10 -0 7.60798e-10)
(7.60965e-10 -6.64203e-14 -0 7.60965e-10 -0 7.60965e-10)
(5.39179e-09 -1.39241e-12 -0 5.39179e-09 -0 5.39179e-09)
(5.38586e-09 -1.39088e-12 -0 5.38586e-09 -0 5.38586e-09)
(5.38732e-09 -1.39126e-12 -0 5.38732e-09 -0 5.38732e-09)
(5.3885e-09 -1.39156e-12 -0 5.3885e-09 -0 5.3885e-09)
(1.96002e-08 -1.07242e-11 -0 1.96002e-08 -0 1.96002e-08)
(1.95787e-08 -1.07124e-11 -0 1.95787e-08 -0 1.95787e-08)
(1.9584e-08 -1.07153e-11 -0 1.9584e-08 -0 1.9584e-08)
(1.95883e-08 -1.07176e-11 -0 1.95883e-08 -0 1.95883e-08)
(5.07087e-08 -4.88161e-11 -0 5.07087e-08 -0 5.07087e-08)
(5.06529e-08 -4.87624e-11 -0 5.06529e-08 -0 5.06529e-08)
(5.06667e-08 -4.87756e-11 -0 5.06667e-08 -0 5.06667e-08)
(5.06778e-08 -4.87864e-11 -0 5.06778e-08 -0 5.06778e-08)
(1.07374e-07 -1.6214e-10 -0 1.07374e-07 -0 1.07374e-07)
(1.07256e-07 -1.61961e-10 -0 1.07256e-07 -0 1.07256e-07)
(1.07285e-07 -1.62006e-10 -0 1.07285e-07 -0 1.07285e-07)
(1.07309e-07 -1.62042e-10 -0 1.07309e-07 -0 1.07309e-07)
(1.99517e-07 -4.37599e-10 -0 1.99517e-07 -0 1.99517e-07)
(1.99298e-07 -4.37116e-10 -0 1.99298e-07 -0 1.99298e-07)
(1.99352e-07 -4.37235e-10 -0 1.99352e-07 -0 1.99352e-07)
(1.99395e-07 -4.37333e-10 -0 1.99395e-07 -0 1.99395e-07)
(3.38321e-07 -1.02044e-09 -0 3.38321e-07 -0 3.38321e-07)
(3.37949e-07 -1.01931e-09 -0 3.37949e-07 -0 3.37949e-07)
(3.38041e-07 -1.01959e-09 -0 3.38041e-07 -0 3.38041e-07)
(3.38114e-07 -1.01982e-09 -0 3.38114e-07 -0 3.38114e-07)
(5.3626e-07 -2.13605e-09 -0 5.3626e-07 -0 5.3626e-07)
(5.3567e-07 -2.13368e-09 -0 5.3567e-07 -0 5.3567e-07)
(5.35816e-07 -2.13426e-09 -0 5.35816e-07 -0 5.35816e-07)
(5.35931e-07 -2.13476e-09 -0 5.35931e-07 -0 5.35931e-07)
(8.07131e-07 -4.11749e-09 -0 8.07131e-07 -0 8.07131e-07)
(8.06243e-07 -4.11291e-09 -0 8.06243e-07 -0 8.06243e-07)
(8.06464e-07 -4.11404e-09 -0 8.06464e-07 -0 8.06464e-07)
(8.06635e-07 -4.11502e-09 -0 8.06635e-07 -0 8.06635e-07)
(1.16605e-06 -7.44306e-09 -0 1.16605e-06 -0 1.16605e-06)
(1.16477e-06 -7.43472e-09 -0 1.16477e-06 -0 1.16477e-06)
(1.16509e-06 -7.43679e-09 -0 1.16509e-06 -0 1.16509e-06)
(1.16533e-06 -7.4386e-09 -0 1.16533e-06 -0 1.16533e-06)
(1.62937e-06 -1.27917e-08 -0 1.62937e-06 -0 1.62937e-06)
(1.62758e-06 -1.27773e-08 -0 1.62758e-06 -0 1.62758e-06)
(1.62803e-06 -1.27808e-08 -0 1.62803e-06 -0 1.62803e-06)
(1.62836e-06 -1.27841e-08 -0 1.62836e-06 -0 1.62836e-06)
(2.21449e-06 -2.11293e-08 -0 2.21449e-06 -0 2.21449e-06)
(2.21207e-06 -2.11049e-08 -0 2.21207e-06 -0 2.21207e-06)
(2.21268e-06 -2.11109e-08 -0 2.21268e-06 -0 2.21268e-06)
(2.21312e-06 -2.11164e-08 -0 2.21312e-06 -0 2.21312e-06)
(2.93948e-06 -3.38429e-08 -0 2.93948e-06 -0 2.93948e-06)
(2.93627e-06 -3.38028e-08 -0 2.93627e-06 -0 2.93627e-06)
(2.93708e-06 -3.38124e-08 -0 2.93708e-06 -0 2.93708e-06)
(2.93766e-06 -3.38215e-08 -0 2.93766e-06 -0 2.93766e-06)
(3.82246e-06 -5.2951e-08 -0 3.82246e-06 -0 3.82246e-06)
(3.81829e-06 -5.28856e-08 -0 3.81829e-06 -0 3.81829e-06)
(3.81935e-06 -5.29008e-08 -0 3.81935e-06 -0 3.81935e-06)
(3.82008e-06 -5.29156e-08 -0 3.82008e-06 -0 3.82008e-06)
(4.88081e-06 -8.14256e-08 -0 4.88081e-06 -0 4.88081e-06)
(4.87552e-06 -8.13195e-08 -0 4.87552e-06 -0 4.87552e-06)
(4.87688e-06 -8.13431e-08 -0 4.87688e-06 -0 4.87688e-06)
(4.87778e-06 -8.13665e-08 -0 4.87778e-06 -0 4.87778e-06)
(6.1302e-06 -1.23687e-07 -0 6.1302e-06 -0 6.1302e-06)
(6.12361e-06 -1.23514e-07 -0 6.12361e-06 -0 6.12361e-06)
(6.12533e-06 -1.2355e-07 -0 6.12533e-06 -0 6.12533e-06)
(6.12641e-06 -1.23587e-07 -0 6.12641e-06 -0 6.12641e-06)
(7.58355e-06 -1.86359e-07 -0 7.58355e-06 -0 7.58355e-06)
(7.57549e-06 -1.86076e-07 -0 7.57549e-06 -0 7.57549e-06)
(7.57763e-06 -1.86131e-07 -0 7.57763e-06 -0 7.57763e-06)
(7.57891e-06 -1.86189e-07 -0 7.57891e-06 -0 7.57891e-06)
(9.25001e-06 -2.7944e-07 -0 9.25001e-06 -0 9.25001e-06)
(9.24033e-06 -2.78971e-07 -0 9.24033e-06 -0 9.24033e-06)
(9.24296e-06 -2.79055e-07 -0 9.24296e-06 -0 9.24296e-06)
(9.24445e-06 -2.79146e-07 -0 9.24445e-06 -0 9.24445e-06)
(1.11342e-05 -4.18103e-07 -0 1.11342e-05 -0 1.11342e-05)
(1.11228e-05 -4.17321e-07 -0 1.11228e-05 -0 1.11228e-05)
(1.1126e-05 -4.17446e-07 -0 1.1126e-05 -0 1.1126e-05)
(1.11276e-05 -4.17591e-07 -0 1.11276e-05 -0 1.11276e-05)
(1.32356e-05 -6.25508e-07 -0 1.32356e-05 -0 1.32356e-05)
(1.32223e-05 -6.24195e-07 -0 1.32223e-05 -0 1.32223e-05)
(1.32262e-05 -6.24384e-07 -0 1.32262e-05 -0 1.32262e-05)
(1.32281e-05 -6.24617e-07 -0 1.32281e-05 -0 1.32281e-05)
(1.55486e-05 -9.37204e-07 -0 1.55486e-05 -0 1.55486e-05)
(1.55335e-05 -9.34988e-07 -0 1.55335e-05 -0 1.55335e-05)
(1.55381e-05 -9.35269e-07 -0 1.55381e-05 -0 1.55381e-05)
(1.55402e-05 -9.35651e-07 -0 1.55402e-05 -0 1.55402e-05)
(1.80626e-05 -1.40803e-06 -0 1.80626e-05 -0 1.80626e-05)
(1.80458e-05 -1.40427e-06 -0 1.80458e-05 -0 1.80458e-05)
(1.80512e-05 -1.40469e-06 -0 1.80512e-05 -0 1.80512e-05)
(1.80534e-05 -1.40532e-06 -0 1.80534e-05 -0 1.80534e-05)
(2.07628e-05 -2.12295e-06 -0 2.07628e-05 -0 2.07628e-05)
(2.07443e-05 -2.11655e-06 -0 2.07443e-05 -0 2.07443e-05)
(2.07506e-05 -2.11714e-06 -0 2.07506e-05 -0 2.07506e-05)
(2.0753e-05 -2.11825e-06 -0 2.0753e-05 -0 2.0753e-05)
(2.36306e-05 -3.21407e-06 -0 2.36306e-05 -0 2.36306e-05)
(2.36105e-05 -3.20311e-06 -0 2.36105e-05 -0 2.36105e-05)
(2.36178e-05 -3.20403e-06 -0 2.36178e-05 -0 2.36178e-05)
(2.36202e-05 -3.20591e-06 -0 2.36202e-05 -0 2.36202e-05)
(2.6644e-05 -4.88679e-06 -0 2.6644e-05 -0 2.6644e-05)
(2.66226e-05 -4.86813e-06 -0 2.66226e-05 -0 2.66226e-05)
(2.66311e-05 -4.8695e-06 -0 2.66311e-05 -0 2.66311e-05)
(2.66334e-05 -4.87267e-06 -0 2.66334e-05 -0 2.66334e-05)
(2.97785e-05 -7.45932e-06 -0 2.97785e-05 -0 2.97785e-05)
(2.9756e-05 -7.42786e-06 -0 2.9756e-05 -0 2.9756e-05)
(2.97657e-05 -7.42969e-06 -0 2.97657e-05 -0 2.97657e-05)
(2.9768e-05 -7.43504e-06 -0 2.9768e-05 -0 2.9768e-05)
(3.3006e-05 -1.14188e-05 -0 3.3006e-05 -0 3.3006e-05)
(3.29826e-05 -1.13667e-05 -0 3.29826e-05 -0 3.29826e-05)
(3.29936e-05 -1.13684e-05 -0 3.29936e-05 -0 3.29936e-05)
(3.29958e-05 -1.13774e-05 -0 3.29958e-05 -0 3.29958e-05)
(3.62936e-05 -1.68765e-05 -0 3.62936e-05 -0 3.62936e-05)
(3.62697e-05 -1.68654e-05 -0 3.62697e-05 -0 3.62697e-05)
(3.62823e-05 -1.68713e-05 -0 3.62823e-05 -0 3.62823e-05)
(3.62841e-05 -1.68721e-05 -0 3.62841e-05 -0 3.62841e-05)
(3.96036e-05 -1.84157e-05 -0 3.96036e-05 -0 3.96036e-05)
(3.95794e-05 -1.84044e-05 -0 3.95794e-05 -0 3.95794e-05)
(3.95936e-05 -1.8411e-05 -0 3.95936e-05 -0 3.95936e-05)
(3.95951e-05 -1.84117e-05 -0 3.95951e-05 -0 3.95951e-05)
(4.29148e-05 -1.99554e-05 -0 4.29148e-05 -0 4.29148e-05)
(4.28906e-05 -1.99441e-05 -0 4.28906e-05 -0 4.28906e-05)
(4.29065e-05 -1.99515e-05 -0 4.29065e-05 -0 4.29065e-05)
(4.29076e-05 -1.9952e-05 -0 4.29076e-05 -0 4.29076e-05)
(4.62076e-05 -2.14865e-05 -0 4.62076e-05 -0 4.62076e-05)
(4.61834e-05 -2.14753e-05 -0 4.61834e-05 -0 4.61834e-05)
(4.62011e-05 -2.14835e-05 -0 4.62011e-05 -0 4.62011e-05)
(4.62018e-05 -2.14838e-05 -0 4.62018e-05 -0 4.62018e-05)
(4.94635e-05 -2.30005e-05 -0 4.94635e-05 -0 4.94635e-05)
(4.94394e-05 -2.29893e-05 -0 4.94394e-05 -0 4.94394e-05)
(4.9459e-05 -2.29985e-05 -0 4.9459e-05 -0 4.9459e-05)
(4.94593e-05 -2.29986e-05 -0 4.94593e-05 -0 4.94593e-05)
(5.26657e-05 -2.44895e-05 -0 5.26657e-05 -0 5.26657e-05)
(5.26418e-05 -2.44784e-05 -0 5.26418e-05 -0 5.26418e-05)
(5.26632e-05 -2.44884e-05 -0 5.26632e-05 -0 5.26632e-05)
(5.26632e-05 -2.44884e-05 -0 5.26632e-05 -0 5.26632e-05)
(5.57981e-05 -2.59461e-05 -0 5.57981e-05 -0 5.57981e-05)
(5.57744e-05 -2.59351e-05 -0 5.57744e-05 -0 5.57744e-05)
(5.57978e-05 -2.5946e-05 -0 5.57978e-05 -0 5.57978e-05)
(5.57976e-05 -2.59459e-05 -0 5.57976e-05 -0 5.57976e-05)
(5.88459e-05 -2.73634e-05 -0 5.88459e-05 -0 5.88459e-05)
(5.88226e-05 -2.73525e-05 -0 5.88226e-05 -0 5.88226e-05)
(5.88479e-05 -2.73643e-05 -0 5.88479e-05 -0 5.88479e-05)
(5.88472e-05 -2.7364e-05 -0 5.88472e-05 -0 5.88472e-05)
(6.18196e-05 -2.87461e-05 -0 6.18196e-05 -0 6.18196e-05)
(6.1796e-05 -2.87351e-05 -0 6.1796e-05 -0 6.1796e-05)
(6.1823e-05 -2.87477e-05 -0 6.1823e-05 -0 6.1823e-05)
(6.18222e-05 -2.87473e-05 -0 6.18222e-05 -0 6.18222e-05)
(6.47361e-05 -3.01023e-05 -0 6.47361e-05 -0 6.47361e-05)
(6.47119e-05 -3.00911e-05 -0 6.47119e-05 -0 6.47119e-05)
(6.47405e-05 -3.01043e-05 -0 6.47405e-05 -0 6.47405e-05)
(6.47395e-05 -3.01039e-05 -0 6.47395e-05 -0 6.47395e-05)
(6.76071e-05 -3.14373e-05 -0 6.76071e-05 -0 6.76071e-05)
(6.7582e-05 -3.14256e-05 -0 6.7582e-05 -0 6.7582e-05)
(6.76121e-05 -3.14396e-05 -0 6.76121e-05 -0 6.76121e-05)
(6.76111e-05 -3.14391e-05 -0 6.76111e-05 -0 6.76111e-05)
(7.04399e-05 -3.27546e-05 -0 7.04399e-05 -0 7.04399e-05)
(7.04136e-05 -3.27423e-05 -0 7.04136e-05 -0 7.04136e-05)
(7.04452e-05 -3.2757e-05 -0 7.04452e-05 -0 7.04452e-05)
(7.04442e-05 -3.27565e-05 -0 7.04442e-05 -0 7.04442e-05)
(7.32387e-05 -3.4056e-05 -0 7.32387e-05 -0 7.32387e-05)
(7.32111e-05 -3.40432e-05 -0 7.32111e-05 -0 7.32111e-05)
(7.32442e-05 -3.40586e-05 -0 7.32442e-05 -0 7.32442e-05)
(7.32431e-05 -3.40581e-05 -0 7.32431e-05 -0 7.32431e-05)
(7.60054e-05 -3.53425e-05 -0 7.60054e-05 -0 7.60054e-05)
(7.59763e-05 -3.5329e-05 -0 7.59763e-05 -0 7.59763e-05)
(7.60109e-05 -3.53451e-05 -0 7.60109e-05 -0 7.60109e-05)
(7.60099e-05 -3.53446e-05 -0 7.60099e-05 -0 7.60099e-05)
(7.87399e-05 -3.66141e-05 -0 7.87399e-05 -0 7.87399e-05)
(7.87093e-05 -3.65998e-05 -0 7.87093e-05 -0 7.87093e-05)
(7.87456e-05 -3.66167e-05 -0 7.87456e-05 -0 7.87456e-05)
(7.87445e-05 -3.66162e-05 -0 7.87445e-05 -0 7.87445e-05)
(8.14412e-05 -3.78702e-05 -0 8.14412e-05 -0 8.14412e-05)
(8.14089e-05 -3.78552e-05 -0 8.14089e-05 -0 8.14089e-05)
(8.14468e-05 -3.78728e-05 -0 8.14468e-05 -0 8.14468e-05)
(8.14458e-05 -3.78723e-05 -0 8.14458e-05 -0 8.14458e-05)
(8.4107e-05 -3.91097e-05 -0 8.4107e-05 -0 8.4107e-05)
(8.4073e-05 -3.9094e-05 -0 8.4073e-05 -0 8.4073e-05)
(8.41126e-05 -3.91124e-05 -0 8.41127e-05 -0 8.41126e-05)
(8.41116e-05 -3.91119e-05 -0 8.41116e-05 -0 8.41116e-05)
(8.67343e-05 -4.03315e-05 -0 8.67343e-05 -0 8.67343e-05)
(8.66986e-05 -4.03149e-05 -0 8.66986e-05 -0 8.66986e-05)
(8.67401e-05 -4.03341e-05 -0 8.67401e-05 -0 8.67401e-05)
(8.6739e-05 -4.03336e-05 -0 8.6739e-05 -0 8.6739e-05)
(8.93198e-05 -4.15337e-05 -0 8.93198e-05 -0 8.93198e-05)
(8.92823e-05 -4.15163e-05 -0 8.92823e-05 -0 8.92823e-05)
(8.93257e-05 -4.15364e-05 -0 8.93257e-05 -0 8.93257e-05)
(8.93246e-05 -4.1536e-05 -0 8.93246e-05 -0 8.93246e-05)
(9.18596e-05 -4.27147e-05 -0 9.18596e-05 -0 9.18596e-05)
(9.18201e-05 -4.26964e-05 -0 9.18201e-05 -0 9.18201e-05)
(9.18655e-05 -4.27175e-05 -0 9.18655e-05 -0 9.18655e-05)
(9.18645e-05 -4.2717e-05 -0 9.18645e-05 -0 9.18645e-05)
(9.43492e-05 -4.38724e-05 -0 9.43492e-05 -0 9.43492e-05)
(9.43078e-05 -4.38531e-05 -0 9.43078e-05 -0 9.43078e-05)
(9.43553e-05 -4.38752e-05 -0 9.43553e-05 -0 9.43553e-05)
(9.43543e-05 -4.38747e-05 -0 9.43543e-05 -0 9.43543e-05)
(9.67842e-05 -4.50046e-05 -0 9.67842e-05 -0 9.67842e-05)
(9.67407e-05 -4.49844e-05 -0 9.67407e-05 -0 9.67407e-05)
(9.67904e-05 -4.50075e-05 -0 9.67904e-05 -0 9.67904e-05)
(9.67894e-05 -4.50071e-05 -0 9.67894e-05 -0 9.67894e-05)
(9.91595e-05 -4.61092e-05 -0 9.91595e-05 -0 9.91595e-05)
(9.91139e-05 -4.6088e-05 -0 9.91139e-05 -0 9.91139e-05)
(9.9166e-05 -4.61122e-05 -0 9.9166e-05 -0 9.9166e-05)
(9.91649e-05 -4.61117e-05 -0 9.91649e-05 -0 9.91649e-05)
(0.00010147 -4.71836e-05 -0 0.00010147 -0 0.00010147)
(0.000101422 -4.71613e-05 -0 0.000101422 -0 0.000101422)
(0.000101477 -4.71867e-05 -0 0.000101477 -0 0.000101477)
(0.000101476 -4.71862e-05 -0 0.000101476 -0 0.000101476)
(0.00010371 -4.82253e-05 -0 0.00010371 -0 0.00010371)
(0.00010366 -4.82019e-05 -0 0.00010366 -0 0.00010366)
(0.000103718 -4.82286e-05 -0 0.000103718 -0 0.000103718)
(0.000103716 -4.8228e-05 -0 0.000103716 -0 0.000103716)
(0.000105875 -4.92318e-05 -0 0.000105875 -0 0.000105875)
(0.000105822 -4.92072e-05 -0 0.000105822 -0 0.000105822)
(0.000105882 -4.92353e-05 -0 0.000105882 -0 0.000105882)
(0.000105881 -4.92345e-05 -0 0.000105881 -0 0.000105881)
(0.000107957 -5.02001e-05 -0 0.000107957 -0 0.000107957)
(0.000107902 -5.01743e-05 -0 0.000107902 -0 0.000107902)
(0.000107965 -5.02038e-05 -0 0.000107965 -0 0.000107965)
(0.000107963 -5.02029e-05 -0 0.000107963 -0 0.000107963)
(0.000109951 -5.11273e-05 -0 0.000109951 -0 0.000109951)
(0.000109893 -5.11002e-05 -0 0.000109893 -0 0.000109893)
(0.00010996 -5.11313e-05 -0 0.00010996 -0 0.00010996)
(0.000109958 -5.11303e-05 -0 0.000109958 -0 0.000109958)
(0.000111851 -5.20105e-05 -0 0.000111851 -0 0.000111851)
(0.000111789 -5.19821e-05 -0 0.000111789 -0 0.000111789)
(0.00011186 -5.20148e-05 -0 0.00011186 -0 0.00011186)
(0.000111857 -5.20137e-05 -0 0.000111857 -0 0.000111857)
(0.000113648 -5.28464e-05 -0 0.000113648 -0 0.000113648)
(0.000113584 -5.28165e-05 -0 0.000113584 -0 0.000113584)
(0.000113658 -5.28509e-05 -0 0.000113658 -0 0.000113658)
(0.000113656 -5.28498e-05 -0 0.000113656 -0 0.000113656)
(0.000115337 -5.36316e-05 -0 0.000115337 -0 0.000115337)
(0.000115269 -5.36003e-05 -0 0.000115269 -0 0.000115269)
(0.000115347 -5.36362e-05 -0 0.000115347 -0 0.000115347)
(0.000115345 -5.36353e-05 -0 0.000115345 -0 0.000115345)
(0.000116909 -5.43627e-05 -0 0.000116909 -0 0.000116909)
(0.000116838 -5.43299e-05 -0 0.000116838 -0 0.000116838)
(0.000116919 -5.43673e-05 -0 0.000116919 -0 0.000116919)
(0.000116918 -5.43668e-05 -0 0.000116918 -0 0.000116918)
(0.000118357 -5.5036e-05 -0 0.000118357 -0 0.000118357)
(0.000118283 -5.50016e-05 -0 0.000118283 -0 0.000118283)
(0.000118367 -5.50406e-05 -0 0.000118367 -0 0.000118367)
(0.000118367 -5.50404e-05 -0 0.000118367 -0 0.000118367)
(0.000119672 -5.56477e-05 -0 0.000119672 -0 0.000119672)
(0.000119595 -5.56117e-05 -0 0.000119595 -0 0.000119595)
(0.000119682 -5.56523e-05 -0 0.000119682 -0 0.000119682)
(0.000119683 -5.56525e-05 -0 0.000119683 -0 0.000119683)
(0.000120847 -5.61937e-05 -0 0.000120847 -0 0.000120847)
(0.000120766 -5.61563e-05 -0 0.000120766 -0 0.000120766)
(0.000120857 -5.61985e-05 -0 0.000120857 -0 0.000120857)
(0.000120858 -5.6199e-05 -0 0.000120858 -0 0.000120858)
(0.000121871 -5.667e-05 -0 0.000121871 -0 0.000121871)
(0.000121787 -5.66311e-05 -0 0.000121787 -0 0.000121787)
(0.000121881 -5.66747e-05 -0 0.000121881 -0 0.000121881)
(0.000121883 -5.66757e-05 -0 0.000121883 -0 0.000121883)
(0.000122736 -5.70722e-05 -0 0.000122736 -0 0.000122736)
(0.000122649 -5.70319e-05 -0 0.000122649 -0 0.000122649)
(0.000122745 -5.70766e-05 -0 0.000122745 -0 0.000122745)
(0.000122749 -5.70785e-05 -0 0.000122749 -0 0.000122749)
(0.000123432 -5.7396e-05 -0 0.000123432 -0 0.000123432)
(0.000123343 -5.73543e-05 -0 0.000123343 -0 0.000123343)
(0.00012344 -5.73998e-05 -0 0.00012344 -0 0.00012344)
(0.000123447 -5.74027e-05 -0 0.000123447 -0 0.000123447)
(0.00012395 -5.76366e-05 -0 0.00012395 -0 0.00012395)
(0.000123858 -5.75938e-05 -0 0.000123858 -0 0.000123858)
(0.000123956 -5.76398e-05 -0 0.000123956 -0 0.000123956)
(0.000123965 -5.76438e-05 -0 0.000123965 -0 0.000123965)
(0.000124279 -5.77895e-05 -0 0.000124279 -0 0.000124279)
(0.000124184 -5.77456e-05 -0 0.000124184 -0 0.000124184)
(0.000124283 -5.77917e-05 -0 0.000124283 -0 0.000124283)
(0.000124295 -5.77972e-05 -0 0.000124295 -0 0.000124295)
(0.000124408 -5.78499e-05 -0 0.000124408 -0 0.000124408)
(0.000124312 -5.78052e-05 -0 0.000124312 -0 0.000124312)
(0.000124411 -5.7851e-05 -0 0.000124411 -0 0.000124411)
(0.000124426 -5.7858e-05 -0 0.000124426 -0 0.000124426)
(0.000124329 -5.78129e-05 -0 0.000124329 -0 0.000124329)
(0.000124232 -5.77677e-05 -0 0.000124232 -0 0.000124232)
(0.000124329 -5.78129e-05 -0 0.000124329 -0 0.000124329)
(0.000124347 -5.78214e-05 -0 0.000124347 -0 0.000124347)
(0.00012403 -5.76738e-05 -0 0.00012403 -0 0.00012403)
(0.000123932 -5.76283e-05 -0 0.000123932 -0 0.000123932)
(0.000124027 -5.76726e-05 -0 0.000124027 -0 0.000124027)
(0.000124049 -5.76826e-05 -0 0.000124049 -0 0.000124049)
(0.000123501 -5.74278e-05 -0 0.000123501 -0 0.000123501)
(0.000123403 -5.73825e-05 -0 0.000123403 -0 0.000123403)
(0.000123495 -5.74253e-05 -0 0.000123495 -0 0.000123495)
(0.00012352 -5.74369e-05 -0 0.00012352 -0 0.00012352)
(0.000122732 -5.70705e-05 -0 0.000122732 -0 0.000122732)
(0.000122636 -5.70258e-05 -0 0.000122636 -0 0.000122636)
(0.000122724 -5.70667e-05 -0 0.000122724 -0 0.000122724)
(0.000122752 -5.70797e-05 -0 0.000122752 -0 0.000122752)
(0.000121715 -5.65973e-05 -0 0.000121715 -0 0.000121715)
(0.000121621 -5.65537e-05 -0 0.000121621 -0 0.000121621)
(0.000121704 -5.65922e-05 -0 0.000121704 -0 0.000121704)
(0.000121734 -5.66065e-05 -0 0.000121734 -0 0.000121734)
(0.000120439 -5.6004e-05 -0 0.000120439 -0 0.000120439)
(0.000120349 -5.59623e-05 -0 0.000120349 -0 0.000120349)
(0.000120425 -5.59976e-05 -0 0.000120425 -0 0.000120425)
(0.000120458 -5.60131e-05 -0 0.000120458 -0 0.000120458)
(0.000118896 -5.52866e-05 -0 0.000118896 -0 0.000118896)
(0.000118812 -5.52474e-05 -0 0.000118812 -0 0.000118812)
(0.000118879 -5.52787e-05 -0 0.000118879 -0 0.000118879)
(0.000118915 -5.52954e-05 -0 0.000118915 -0 0.000118915)
(0.000117077 -5.44409e-05 -0 0.000117077 -0 0.000117077)
(0.000117 -5.4405e-05 -0 0.000117 -0 0.000117)
(0.000117057 -5.44313e-05 -0 0.000117057 -0 0.000117057)
(0.000117095 -5.4449e-05 -0 0.000117095 -0 0.000117095)
(0.000114972 -5.34622e-05 -0 0.000114972 -0 0.000114972)
(0.000114904 -5.34305e-05 -0 0.000114904 -0 0.000114904)
(0.000114947 -5.34504e-05 -0 0.000114947 -0 0.000114947)
(0.000114988 -5.34692e-05 -0 0.000114988 -0 0.000114988)
(0.000112569 -5.23444e-05 -0 0.000112569 -0 0.000112569)
(0.000112511 -5.23177e-05 -0 0.000112511 -0 0.000112511)
(0.000112537 -5.23295e-05 -0 0.000112537 -0 0.000112537)
(0.00011258 -5.23498e-05 -0 0.00011258 -0 0.00011258)
(0.000109847 -5.10788e-05 -0 0.000109847 -0 0.000109847)
(0.000109802 -5.1058e-05 -0 0.000109802 -0 0.000109802)
(0.000109805 -5.10592e-05 -0 0.000109805 -0 0.000109805)
(0.000109854 -5.1082e-05 -0 0.000109854 -0 0.000109854)
(0.000106779 -4.96521e-05 -0 0.000106779 -0 0.000106779)
(0.000106748 -4.96379e-05 -0 0.000106748 -0 0.000106748)
(0.000106725 -4.96271e-05 -0 0.000106725 -0 0.000106725)
(0.000106779 -4.96522e-05 -0 0.000106779 -0 0.000106779)
(0.000103333 -4.80499e-05 -0 0.000103333 -0 0.000103333)
(0.000103312 -4.80401e-05 -0 0.000103312 -0 0.000103312)
(0.00010327 -4.80204e-05 -0 0.00010327 -0 0.00010327)
(0.000103329 -4.80482e-05 -0 0.000103329 -0 0.000103329)
(9.95264e-05 -4.62798e-05 -0 9.95264e-05 -0 9.95264e-05)
(9.9511e-05 -4.62726e-05 -0 9.9511e-05 -0 9.9511e-05)
(9.94552e-05 -4.62467e-05 -0 9.94551e-05 -0 9.94552e-05)
(9.95213e-05 -4.62774e-05 -0 9.95213e-05 -0 9.95213e-05)
(9.53814e-05 -4.43523e-05 -0 9.53814e-05 -0 9.53814e-05)
(9.53696e-05 -4.43468e-05 -0 9.53695e-05 -0 9.53696e-05)
(9.53032e-05 -4.4316e-05 -0 9.53032e-05 -0 9.53032e-05)
(9.53766e-05 -4.43501e-05 -0 9.53767e-05 -0 9.53767e-05)
(9.0935e-05 -4.22848e-05 -0 9.09351e-05 -0 9.09351e-05)
(9.09249e-05 -4.22801e-05 -0 9.09249e-05 -0 9.09249e-05)
(9.08502e-05 -4.22453e-05 -0 9.08501e-05 -0 9.08502e-05)
(9.09273e-05 -4.22812e-05 -0 9.09274e-05 -0 9.09274e-05)
(8.62323e-05 -4.0098e-05 -0 8.62324e-05 -0 8.62324e-05)
(8.6223e-05 -4.00937e-05 -0 8.62229e-05 -0 8.62229e-05)
(8.61414e-05 -4.00557e-05 -0 8.61413e-05 -0 8.61414e-05)
(8.62196e-05 -4.00921e-05 -0 8.62196e-05 -0 8.62196e-05)
(8.13271e-05 -3.78171e-05 -0 8.13271e-05 -0 8.13271e-05)
(8.13184e-05 -3.78131e-05 -0 8.13184e-05 -0 8.13184e-05)
(8.12311e-05 -3.77724e-05 -0 8.12311e-05 -0 8.12311e-05)
(8.13083e-05 -3.78084e-05 -0 8.13084e-05 -0 8.13083e-05)
(7.62808e-05 -2.74368e-05 -0 7.62808e-05 -0 7.62808e-05)
(7.62731e-05 -2.72678e-05 -0 7.62731e-05 -0 7.62731e-05)
(7.61807e-05 -2.68522e-05 -0 7.61807e-05 -0 7.61807e-05)
(7.62556e-05 -2.72773e-05 -0 7.62556e-05 -0 7.62556e-05)
(7.12045e-05 -1.82309e-05 -0 7.12045e-05 -0 7.12045e-05)
(7.11988e-05 -1.81915e-05 -0 7.11988e-05 -0 7.11988e-05)
(7.1104e-05 -1.79303e-05 -0 7.1104e-05 -0 7.1104e-05)
(7.11733e-05 -1.81861e-05 -0 7.11733e-05 -0 7.11733e-05)
(6.62087e-05 -1.23501e-05 -0 6.62087e-05 -0 6.62087e-05)
(6.62047e-05 -1.23138e-05 -0 6.62047e-05 -0 6.62047e-05)
(6.61089e-05 -1.21536e-05 -0 6.61089e-05 -0 6.61089e-05)
(6.61706e-05 -1.23016e-05 -0 6.61706e-05 -0 6.61706e-05)
(6.13878e-05 -8.47943e-06 -0 6.13878e-05 -0 6.13878e-05)
(6.13854e-05 -8.46321e-06 -0 6.13854e-05 -0 6.13854e-05)
(6.12894e-05 -8.35762e-06 -0 6.12894e-05 -0 6.12894e-05)
(6.13425e-05 -8.44449e-06 -0 6.13425e-05 -0 6.13425e-05)
(5.6826e-05 -5.90331e-06 -0 5.6826e-05 -0 5.6826e-05)
(5.68247e-05 -5.89718e-06 -0 5.68247e-05 -0 5.68247e-05)
(5.67292e-05 -5.82532e-06 -0 5.67292e-05 -0 5.67292e-05)
(5.67732e-05 -5.87761e-06 -0 5.67732e-05 -0 5.67732e-05)
(5.25984e-05 -4.16092e-06 -0 5.25984e-05 -0 5.25984e-05)
(5.25972e-05 -4.15923e-06 -0 5.25972e-05 -0 5.25972e-05)
(5.25025e-05 -4.10902e-06 -0 5.25025e-05 -0 5.25025e-05)
(5.25377e-05 -4.14155e-06 -0 5.25377e-05 -0 5.25377e-05)
(4.87678e-05 -2.96117e-06 -0 4.87678e-05 -0 4.87678e-05)
(4.8768e-05 -2.96127e-06 -0 4.8768e-05 -0 4.8768e-05)
(4.86743e-05 -2.92553e-06 -0 4.86743e-05 -0 4.86743e-05)
(4.87011e-05 -2.9466e-06 -0 4.87011e-05 -0 4.87011e-05)
(4.53897e-05 -2.11797e-06 -0 4.53897e-05 -0 4.53897e-05)
(4.53922e-05 -2.11864e-06 -0 4.53922e-05 -0 4.53922e-05)
(4.52997e-05 -2.09299e-06 -0 4.52997e-05 -0 4.52997e-05)
(4.53194e-05 -2.10726e-06 -0 4.53194e-05 -0 4.53194e-05)
(4.25098e-05 -1.50996e-06 -0 4.25098e-05 -0 4.25098e-05)
(4.25147e-05 -1.51066e-06 -0 4.25147e-05 -0 4.25147e-05)
(4.24235e-05 -1.49233e-06 -0 4.24235e-05 -0 4.24235e-05)
(4.24377e-05 -1.50237e-06 -0 4.24377e-05 -0 4.24377e-05)
(4.01637e-05 -1.05605e-06 -0 4.01637e-05 -0 4.01637e-05)
(4.01706e-05 -1.05642e-06 -0 4.01706e-05 -0 4.01706e-05)
(4.00808e-05 -1.04373e-06 -0 4.00808e-05 -0 4.00808e-05)
(4.00915e-05 -1.05091e-06 -0 4.00915e-05 -0 4.00915e-05)
(3.83786e-05 -7.00519e-07 -0 3.83786e-05 -0 3.83786e-05)
(3.8387e-05 -7.00657e-07 -0 3.8387e-05 -0 3.8387e-05)
(3.82987e-05 -6.92373e-07 -0 3.82987e-05 -0 3.82987e-05)
(3.83072e-05 -6.97354e-07 -0 3.83072e-05 -0 3.83072e-05)
(3.71756e-05 -4.06452e-07 -0 3.71756e-05 -0 3.71756e-05)
(3.71848e-05 -4.06436e-07 -0 3.71848e-05 -0 3.71848e-05)
(3.70976e-05 -4.01645e-07 -0 3.70976e-05 -0 3.70976e-05)
(3.71049e-05 -4.047e-07 -0 3.71049e-05 -0 3.71049e-05)
(3.65664e-05 -1.35538e-07 -0 3.65664e-05 -0 3.65664e-05)
(3.65759e-05 -1.35496e-07 -0 3.65759e-05 -0 3.65759e-05)
(3.64892e-05 -1.33888e-07 -0 3.64892e-05 -0 3.64892e-05)
(3.6496e-05 -1.34955e-07 -0 3.6496e-05 -0 3.6496e-05)
)
;

boundaryField
{
    inlet
    {
        type            cyclic;
    }
    outlet
    {
        type            cyclic;
    }
    fixedWalls-bottom
    {
        type            kqRWallFunction;
        value           nonuniform List<symmTensor> 4((2.53838e-11 -0 -0 2.53838e-11 -0 2.53838e-11) (2.53559e-11 -0 -0 2.53559e-11 -0 2.53559e-11) (2.53628e-11 -0 -0 2.53628e-11 -0 2.53628e-11) (2.53683e-11 -0 -0 2.53683e-11 -0 2.53683e-11));
    }
    fixedWalls-top
    {
        type            symmetry;
    }
    frontAndBack
    {
        type            empty;
    }
}


// ************************************************************************* //
