/*--------------------------------*- C++ -*----------------------------------*\
  =========                 |
  \\      /  F ield         | OpenFOAM: The Open Source CFD Toolbox
   \\    /   O peration     | Website:  https://openfoam.org
    \\  /    A nd           | Version:  10
     \\/     M anipulation  |
\*---------------------------------------------------------------------------*/
FoamFile
{
    format      ascii;
    class       volVectorField;
    location    "2500";
    object      U;
}
// * * * * * * * * * * * * * * * * * * * * * * * * * * * * * * * * * * * * * //

dimensions      [0 1 -1 0 0 0 0];

internalField   nonuniform List<vector> 
400
(
(0.00695227 6.73008e-13 0)
(0.00695227 9.58561e-14 0)
(0.00695227 2.1512e-13 0)
(0.00695227 -9.715e-14 0)
(0.0208905 3.17046e-13 0)
(0.0208905 7.00343e-13 0)
(0.0208905 1.93609e-12 0)
(0.0208905 -7.04834e-13 0)
(0.034959 -2.63513e-12 0)
(0.034959 1.84584e-12 0)
(0.034959 4.7203e-12 0)
(0.034959 -1.85476e-12 0)
(0.0491577 -6.257e-12 0)
(0.0491577 3.42454e-12 0)
(0.0491577 8.23149e-12 0)
(0.0491577 -3.43785e-12 0)
(0.0634863 -9.96788e-12 0)
(0.0634863 5.40901e-12 0)
(0.0634863 1.19003e-11 0)
(0.0634863 -5.42657e-12 0)
(0.0779446 -1.32297e-11 0)
(0.0779446 7.8094e-12 0)
(0.0779446 1.51452e-11 0)
(0.0779446 -7.83116e-12 0)
(0.0925322 -1.54438e-11 0)
(0.0925322 1.06822e-11 0)
(0.0925322 1.73453e-11 0)
(0.0925322 -1.07081e-11 0)
(0.107249 -1.5931e-11 0)
(0.107249 1.41341e-11 0)
(0.107249 1.78162e-11 0)
(0.107249 -1.41642e-11 0)
(0.122094 -1.39405e-11 0)
(0.122094 1.8322e-11 0)
(0.122094 1.58095e-11 0)
(0.122094 -1.83563e-11 0)
(0.137067 -8.65703e-12 0)
(0.137067 2.34577e-11 0)
(0.137067 1.05091e-11 0)
(0.137067 -2.34962e-11 0)
(0.152167 8.01943e-13 0)
(0.152167 2.98073e-11 0)
(0.152167 1.0336e-12 0)
(0.152167 -2.985e-11 0)
(0.167394 1.53871e-11 0)
(0.167394 3.76956e-11 0)
(0.167394 -1.35686e-11 0)
(0.167394 -3.77426e-11 0)
(0.182747 3.61175e-11 0)
(0.182747 4.75032e-11 0)
(0.182747 -3.43158e-11 0)
(0.182747 -4.75545e-11 0)
(0.198226 6.40807e-11 0)
(0.198225 5.96685e-11 0)
(0.198226 -6.22961e-11 0)
(0.198225 -5.97241e-11 0)
(0.213828 1.00431e-10 0)
(0.213828 7.46808e-11 0)
(0.213828 -9.86626e-11 0)
(0.213828 -7.47407e-11 0)
(0.229553 1.46387e-10 0)
(0.229553 9.30774e-11 0)
(0.229553 -1.44636e-10 0)
(0.229553 -9.31418e-11 0)
(0.245401 2.03231e-10 0)
(0.245401 1.1543e-10 0)
(0.245401 -2.01496e-10 0)
(0.245401 -1.15498e-10 0)
(0.26137 2.72296e-10 0)
(0.26137 1.42325e-10 0)
(0.26137 -2.70578e-10 0)
(0.26137 -1.42398e-10 0)
(0.277458 3.54963e-10 0)
(0.277458 1.74331e-10 0)
(0.277458 -3.53261e-10 0)
(0.277458 -1.74409e-10 0)
(0.293664 4.52639e-10 0)
(0.293664 2.11939e-10 0)
(0.293664 -4.50953e-10 0)
(0.293664 -2.12021e-10 0)
(0.309988 5.66729e-10 0)
(0.309988 2.5545e-10 0)
(0.309988 -5.65058e-10 0)
(0.309988 -2.55537e-10 0)
(0.326426 6.98592e-10 0)
(0.326426 3.04791e-10 0)
(0.326426 -6.96938e-10 0)
(0.326426 -3.04882e-10 0)
(0.342978 8.49474e-10 0)
(0.342978 3.59224e-10 0)
(0.342978 -8.47836e-10 0)
(0.342978 -3.59319e-10 0)
(0.359642 1.02038e-09 0)
(0.359642 4.16955e-10 0)
(0.359642 -1.01875e-09 0)
(0.359642 -4.17054e-10 0)
(0.376415 1.21178e-09 0)
(0.376415 4.74302e-10 0)
(0.376415 -1.21017e-09 0)
(0.376415 -4.74406e-10 0)
(0.393296 1.42301e-09 0)
(0.393296 5.22061e-10 0)
(0.393296 -1.42142e-09 0)
(0.393296 -5.22169e-10 0)
(0.410281 1.65104e-09 0)
(0.410281 5.37143e-10 0)
(0.410281 -1.64946e-09 0)
(0.410281 -5.37256e-10 0)
(0.427369 1.89045e-09 0)
(0.427369 4.80074e-10 0)
(0.427369 -1.88889e-09 0)
(0.427369 -4.80192e-10 0)
(0.444556 2.14374e-09 0)
(0.444556 3.86523e-10 0)
(0.444556 -2.1422e-09 0)
(0.444556 -3.86644e-10 0)
(0.461841 2.40788e-09 0)
(0.461841 2.4012e-10 0)
(0.461841 -2.40635e-09 0)
(0.461841 -2.40246e-10 0)
(0.47922 2.68851e-09 0)
(0.47922 1.01874e-10 0)
(0.47922 -2.687e-09 0)
(0.47922 -1.02005e-10 0)
(0.496692 2.98495e-09 0)
(0.496692 -2.64892e-11 0)
(0.496692 -2.98346e-09 0)
(0.496692 2.63542e-11 0)
(0.514253 3.29597e-09 0)
(0.514253 -1.46144e-10 0)
(0.514253 -3.29448e-09 0)
(0.514253 1.46005e-10 0)
(0.5319 3.62038e-09 0)
(0.5319 -2.55025e-10 0)
(0.5319 -3.61891e-09 0)
(0.5319 2.54881e-10 0)
(0.54963 3.95698e-09 0)
(0.54963 -3.49624e-10 0)
(0.549631 -3.95553e-09 0)
(0.54963 3.49476e-10 0)
(0.56744 4.3044e-09 0)
(0.56744 -4.26262e-10 0)
(0.56744 -4.30296e-09 0)
(0.56744 4.2611e-10 0)
(0.585325 4.66126e-09 0)
(0.585325 -4.81825e-10 0)
(0.585325 -4.65984e-09 0)
(0.585325 4.81668e-10 0)
(0.603283 5.0262e-09 0)
(0.603283 -5.13641e-10 0)
(0.603283 -5.02479e-09 0)
(0.603283 5.13481e-10 0)
(0.621308 5.398e-09 0)
(0.621308 -5.19954e-10 0)
(0.621308 -5.39661e-09 0)
(0.621308 5.19789e-10 0)
(0.639397 5.7755e-09 0)
(0.639397 -4.99781e-10 0)
(0.639397 -5.77413e-09 0)
(0.639397 4.99612e-10 0)
(0.657545 6.15761e-09 0)
(0.657545 -4.52681e-10 0)
(0.657545 -6.15625e-09 0)
(0.657545 4.52508e-10 0)
(0.675748 6.54326e-09 0)
(0.675748 -3.78688e-10 0)
(0.675748 -6.54192e-09 0)
(0.675748 3.78511e-10 0)
(0.694001 6.93146e-09 0)
(0.694001 -2.78212e-10 0)
(0.694001 -6.93014e-09 0)
(0.694001 2.78031e-10 0)
(0.712298 7.32127e-09 0)
(0.712298 -1.52043e-10 0)
(0.712298 -7.31996e-09 0)
(0.712298 1.51859e-10 0)
(0.730636 7.71181e-09 0)
(0.730636 -1.27649e-12 0)
(0.730636 -7.71051e-09 0)
(0.730636 1.08809e-12 0)
(0.749007 8.10227e-09 0)
(0.749007 1.72674e-10 0)
(0.749007 -8.10099e-09 0)
(0.749007 -1.72866e-10 0)
(0.767407 8.49193e-09 0)
(0.767407 3.68121e-10 0)
(0.767407 -8.49066e-09 0)
(0.767407 -3.68317e-10 0)
(0.785829 8.88013e-09 0)
(0.785829 5.8309e-10 0)
(0.785829 -8.87888e-09 0)
(0.785829 -5.83289e-10 0)
(0.804267 9.26625e-09 0)
(0.804267 8.15338e-10 0)
(0.804267 -9.26501e-09 0)
(0.804267 -8.15541e-10 0)
(0.822715 9.64972e-09 0)
(0.822715 1.06237e-09 0)
(0.822715 -9.6485e-09 0)
(0.822715 -1.06257e-09 0)
(0.841166 1.00299e-08 0)
(0.841166 1.32142e-09 0)
(0.841166 -1.00287e-08 0)
(0.841166 -1.32163e-09 0)
(0.859612 1.04061e-08 0)
(0.859612 1.58953e-09 0)
(0.859612 -1.04049e-08 0)
(0.859612 -1.58974e-09 0)
(0.878047 1.07775e-08 0)
(0.878047 1.86347e-09 0)
(0.878047 -1.07763e-08 0)
(0.878047 -1.86369e-09 0)
(0.896462 1.11429e-08 0)
(0.896462 2.13988e-09 0)
(0.896462 -1.11418e-08 0)
(0.896462 -2.1401e-09 0)
(0.91485 1.15009e-08 0)
(0.91485 2.41521e-09 0)
(0.91485 -1.14998e-08 0)
(0.91485 -2.41544e-09 0)
(0.933203 1.18497e-08 0)
(0.933203 2.68578e-09 0)
(0.933203 -1.18486e-08 0)
(0.933203 -2.686e-09 0)
(0.951511 1.21871e-08 0)
(0.951511 2.94797e-09 0)
(0.951511 -1.2186e-08 0)
(0.951511 -2.94819e-09 0)
(0.969766 1.25103e-08 0)
(0.969766 3.1975e-09 0)
(0.969766 -1.25092e-08 0)
(0.969766 -3.19773e-09 0)
(0.987958 1.28158e-08 0)
(0.987958 3.43059e-09 0)
(0.987958 -1.28148e-08 0)
(0.987958 -3.43082e-09 0)
(1.00608 1.30999e-08 0)
(1.00608 3.64286e-09 0)
(1.00608 -1.30988e-08 0)
(1.00608 -3.64309e-09 0)
(1.02412 1.33578e-08 0)
(1.02412 3.83084e-09 0)
(1.02412 -1.33568e-08 0)
(1.02412 -3.83108e-09 0)
(1.04206 1.35844e-08 0)
(1.04206 3.99068e-09 0)
(1.04206 -1.35834e-08 0)
(1.04206 -3.99092e-09 0)
(1.0599 1.37735e-08 0)
(1.0599 4.11997e-09 0)
(1.0599 -1.37725e-08 0)
(1.0599 -4.12021e-09 0)
(1.07763 1.39177e-08 0)
(1.07763 4.21539e-09 0)
(1.07763 -1.39167e-08 0)
(1.07763 -4.21564e-09 0)
(1.09523 1.40085e-08 0)
(1.09523 4.2743e-09 0)
(1.09523 -1.40075e-08 0)
(1.09523 -4.27454e-09 0)
(1.11268 1.40358e-08 0)
(1.11268 4.29267e-09 0)
(1.11268 -1.40348e-08 0)
(1.11268 -4.29292e-09 0)
(1.12999 1.3988e-08 0)
(1.12999 4.26599e-09 0)
(1.12999 -1.39871e-08 0)
(1.12999 -4.26623e-09 0)
(1.14713 1.38523e-08 0)
(1.14713 4.18975e-09 0)
(1.14713 -1.38514e-08 0)
(1.14713 -4.19e-09 0)
(1.1641 1.36142e-08 0)
(1.1641 4.05992e-09 0)
(1.1641 -1.36133e-08 0)
(1.1641 -4.06016e-09 0)
(1.18087 1.32579e-08 0)
(1.18087 3.87371e-09 0)
(1.18087 -1.3257e-08 0)
(1.18087 -3.87396e-09 0)
(1.19743 1.27666e-08 0)
(1.19743 3.63037e-09 0)
(1.19743 -1.27657e-08 0)
(1.19743 -3.63062e-09 0)
(1.21377 1.21222e-08 0)
(1.21377 3.33223e-09 0)
(1.21377 -1.21214e-08 0)
(1.21377 -3.33248e-09 0)
(1.22987 1.13065e-08 0)
(1.22987 2.98573e-09 0)
(1.22987 -1.13057e-08 0)
(1.22987 -2.98598e-09 0)
(1.24572 1.0301e-08 0)
(1.24572 2.60277e-09 0)
(1.24572 -1.03003e-08 0)
(1.24572 -2.60301e-09 0)
(1.2613 9.08896e-09 0)
(1.2613 2.20179e-09 0)
(1.2613 -9.0882e-09 0)
(1.2613 -2.20204e-09 0)
(1.27658 7.65603e-09 0)
(1.27658 1.80913e-09 0)
(1.27658 -7.65529e-09 0)
(1.27658 -1.80937e-09 0)
(1.29156 5.99319e-09 0)
(1.29156 1.4598e-09 0)
(1.29156 -5.99247e-09 0)
(1.29156 -1.46004e-09 0)
(1.30621 4.09921e-09 0)
(1.30621 1.19795e-09 0)
(1.30621 -4.09852e-09 0)
(1.30621 -1.19819e-09 0)
(1.32051 1.98524e-09 0)
(1.32051 1.07503e-09 0)
(1.32051 -1.98457e-09 0)
(1.32051 -1.07526e-09 0)
(1.33445 -3.18854e-10 0)
(1.33445 1.14488e-09 0)
(1.33445 3.19496e-10 0)
(1.33445 -1.14511e-09 0)
(1.348 -2.75931e-09 0)
(1.348 1.46519e-09 0)
(1.348 2.75993e-09 0)
(1.348 -1.46541e-09 0)
(1.36114 -5.28226e-09 0)
(1.36114 2.10043e-09 0)
(1.36114 5.28285e-09 0)
(1.36114 -2.10065e-09 0)
(1.37385 -7.82813e-09 0)
(1.37385 3.12079e-09 0)
(1.37385 7.82869e-09 0)
(1.37385 -3.121e-09 0)
(1.3861 -1.03487e-08 0)
(1.3861 4.61368e-09 0)
(1.3861 1.03493e-08 0)
(1.3861 -4.61389e-09 0)
(1.39787 -1.27828e-08 0)
(1.39787 6.75497e-09 0)
(1.39787 1.27833e-08 0)
(1.39787 -6.75517e-09 0)
(1.40914 -1.50361e-08 0)
(1.40914 9.91837e-09 0)
(1.40914 1.50366e-08 0)
(1.40914 -9.91857e-09 0)
(1.41988 -1.69687e-08 0)
(1.41988 1.43109e-08 0)
(1.41988 1.69692e-08 0)
(1.41988 -1.43111e-08 0)
(1.43006 -1.8447e-08 0)
(1.43006 1.6413e-08 0)
(1.43006 1.84474e-08 0)
(1.43006 -1.64132e-08 0)
(1.43966 -1.92318e-08 0)
(1.43966 1.75239e-08 0)
(1.43966 1.92322e-08 0)
(1.43966 -1.75241e-08 0)
(1.44865 -1.93065e-08 0)
(1.44865 1.50073e-08 0)
(1.44865 1.93068e-08 0)
(1.44865 -1.50075e-08 0)
(1.457 -1.86615e-08 0)
(1.457 1.14296e-08 0)
(1.457 1.86618e-08 0)
(1.457 -1.14298e-08 0)
(1.46468 -1.7406e-08 0)
(1.46468 7.89304e-09 0)
(1.46468 1.74063e-08 0)
(1.46468 -7.89318e-09 0)
(1.47164 -1.56777e-08 0)
(1.47164 4.85067e-09 0)
(1.47164 1.56779e-08 0)
(1.47164 -4.8508e-09 0)
(1.47787 -1.36418e-08 0)
(1.47787 2.45218e-09 0)
(1.47787 1.3642e-08 0)
(1.47787 -2.45229e-09 0)
(1.48332 -1.14511e-08 0)
(1.48332 7.28088e-10 0)
(1.48332 1.14512e-08 0)
(1.48332 -7.28185e-10 0)
(1.48796 -9.22454e-09 0)
(1.48796 -3.59479e-10 0)
(1.48796 9.22467e-09 0)
(1.48796 3.59398e-10 0)
(1.49174 -7.04213e-09 0)
(1.49174 -8.91116e-10 0)
(1.49174 7.04223e-09 0)
(1.49174 8.91053e-10 0)
(1.49464 -4.94361e-09 0)
(1.49464 -9.70961e-10 0)
(1.49464 4.94367e-09 0)
(1.49464 9.70916e-10 0)
(1.49662 -2.93131e-09 0)
(1.49662 -7.17485e-10 0)
(1.49662 2.93133e-09 0)
(1.49662 7.17463e-10 0)
(1.49762 -9.74445e-10 0)
(1.49762 -2.59274e-10 0)
(1.49762 9.74452e-10 0)
(1.49762 2.59267e-10 0)
)
;

boundaryField
{
    inlet
    {
        type            cyclic;
    }
    outlet
    {
        type            cyclic;
    }
    fixedWalls-bottom
    {
        type            noSlip;
    }
    fixedWalls-top
    {
        type            symmetry;
    }
    frontAndBack
    {
        type            empty;
    }
}


// ************************************************************************* //
