/*--------------------------------*- C++ -*----------------------------------*\
  =========                 |
  \\      /  F ield         | OpenFOAM: The Open Source CFD Toolbox
   \\    /   O peration     | Website:  https://openfoam.org
    \\  /    A nd           | Version:  10
     \\/     M anipulation  |
\*---------------------------------------------------------------------------*/
FoamFile
{
    format      ascii;
    class       volScalarField;
    location    "2500";
    object      nut;
}
// * * * * * * * * * * * * * * * * * * * * * * * * * * * * * * * * * * * * * //

dimensions      [0 2 -1 0 0 0 0];

internalField   nonuniform List<scalar> 
400
(
1.82185e-14
1.8197e-14
1.81903e-14
1.82009e-14
3.19522e-12
3.19145e-12
3.19028e-12
3.19214e-12
6.72739e-11
6.71944e-11
6.71699e-11
6.7209e-11
5.20756e-10
5.20139e-10
5.1995e-10
5.20253e-10
2.38276e-09
2.37993e-09
2.37906e-09
2.38045e-09
7.95631e-09
7.94682e-09
7.94393e-09
7.94863e-09
2.15905e-08
2.15645e-08
2.15568e-08
2.15696e-08
5.06293e-08
5.05679e-08
5.05497e-08
5.05805e-08
1.06591e-07
1.0646e-07
1.06422e-07
1.06488e-07
2.06682e-07
2.06425e-07
2.06352e-07
2.06485e-07
3.75886e-07
3.75411e-07
3.75281e-07
3.7553e-07
6.50054e-07
6.49211e-07
6.4899e-07
6.49439e-07
1.0807e-06
1.07925e-06
1.07889e-06
1.07967e-06
1.74256e-06
1.7401e-06
1.73952e-06
1.74083e-06
2.74535e-06
2.7412e-06
2.74031e-06
2.74245e-06
4.2521e-06
4.2451e-06
4.24375e-06
4.24717e-06
6.5074e-06
6.49555e-06
6.4935e-06
6.4989e-06
9.88115e-06
9.86097e-06
9.85787e-06
9.86632e-06
1.49365e-05
1.4902e-05
1.48972e-05
1.49105e-05
2.25358e-05
2.24764e-05
2.24691e-05
2.24901e-05
3.4006e-05
3.39034e-05
3.38919e-05
3.39259e-05
5.13961e-05
5.12195e-05
5.12006e-05
5.12574e-05
7.78775e-05
7.75744e-05
7.75412e-05
7.76397e-05
0.000118351
0.000117835
0.00011778
0.000117951
0.000180337
0.000179477
0.000179376
0.000179684
0.000275189
0.000273795
0.000273581
0.000274172
0.000419478
0.000417283
0.000416819
0.000417969
0.00046895
0.000468796
0.000468641
0.000468732
0.00051858
0.000518479
0.00051832
0.00051839
0.000569091
0.000569029
0.000568865
0.000568921
0.000620173
0.000620152
0.000619986
0.000620025
0.00067151
0.000671536
0.000671369
0.000671387
0.000722794
0.000722871
0.000722704
0.000722698
0.000773723
0.000773854
0.000773689
0.000773656
0.000824035
0.000824208
0.000824035
0.000823995
0.000874225
0.000874427
0.000874239
0.000874208
0.000924687
0.000924906
0.000924702
0.000924693
0.000975726
0.000975952
0.000975731
0.000975753
0.00102757
0.0010278
0.00102756
0.00102762
0.0010804
0.00108061
0.00108036
0.00108046
0.00113433
0.00113453
0.00113426
0.00113442
0.00118946
0.00118964
0.00118935
0.00118957
0.00124586
0.00124601
0.0012457
0.00124599
0.00130357
0.00130368
0.00130336
0.00130372
0.00136262
0.00136269
0.00136235
0.0013628
0.00142302
0.00142304
0.00142268
0.00142323
0.00148478
0.00148474
0.00148436
0.00148502
0.00154787
0.00154777
0.00154736
0.00154815
0.00161228
0.0016121
0.00161167
0.0016126
0.00167796
0.00167769
0.00167723
0.00167832
0.00174485
0.00174449
0.001744
0.00174527
0.00181288
0.00181242
0.00181191
0.00181337
0.00188197
0.00188139
0.00188084
0.00188253
0.00195197
0.00195128
0.0019507
0.00195262
0.00202276
0.00202195
0.00202133
0.00202351
0.00209415
0.00209322
0.00209256
0.00209501
0.00216593
0.00216488
0.00216417
0.00216692
0.00223784
0.00223668
0.00223592
0.00223898
0.00230958
0.00230831
0.0023075
0.00231088
0.00238078
0.00237942
0.00237856
0.00238226
0.00245103
0.00244958
0.00244867
0.0024527
0.00251982
0.00251831
0.00251735
0.00252171
0.0025866
0.00258503
0.00258404
0.0025887
0.0026507
0.0026491
0.00264806
0.002653
0.00271135
0.00270975
0.00270867
0.00271383
0.00276768
0.00276611
0.00276501
0.0027703
0.00281872
0.00281721
0.00281608
0.00282141
0.00286335
0.00286195
0.00286078
0.002866
0.00290033
0.00289907
0.00289787
0.00290277
0.00292828
0.00292719
0.00292596
0.00293028
0.00294566
0.00294474
0.00294347
0.0029469
0.00295076
0.00294998
0.00294866
0.00295125
0.00294253
0.00294191
0.00294058
0.00294243
0.00292016
0.00291966
0.00291836
0.00291956
0.00288283
0.00288245
0.00288119
0.00288184
0.00282984
0.00282957
0.00282834
0.00282856
0.00276061
0.00276045
0.00275923
0.00275913
0.00267472
0.00267472
0.00267346
0.00267315
0.00257192
0.00257208
0.00257074
0.0025703
0.00245071
0.00245103
0.00244954
0.00244905
0.0022837
0.0022844
0.00228159
0.00228195
0.00147854
0.00148492
0.0014551
0.00147591
0.000840025
0.000843424
0.00083025
0.000839642
0.00052588
0.000526932
0.000520849
0.000525607
0.000353262
0.000352576
0.000350453
0.000352782
0.000248639
0.000248049
0.000247028
0.000248268
0.000181247
0.000180729
0.000180444
0.000181063
0.000135484
0.000134933
0.000135141
0.000135447
0.000103006
0.000102542
0.000102835
0.000103047
7.91018e-05
7.87752e-05
7.90052e-05
7.92165e-05
6.11305e-05
6.09237e-05
6.10655e-05
6.12849e-05
4.74603e-05
4.73442e-05
4.74104e-05
4.76342e-05
3.70191e-05
3.6968e-05
3.69795e-05
3.72062e-05
2.9061e-05
2.9053e-05
2.90359e-05
2.9255e-05
2.30664e-05
2.30843e-05
2.3058e-05
2.32597e-05
1.8636e-05
1.86675e-05
1.86419e-05
1.88224e-05
1.54521e-05
1.54891e-05
1.54688e-05
1.56284e-05
1.32802e-05
1.33185e-05
1.33044e-05
1.34467e-05
1.19612e-05
1.1999e-05
1.19903e-05
1.21203e-05
1.14016e-05
1.14382e-05
1.14329e-05
1.15565e-05
)
;

boundaryField
{
    inlet
    {
        type            cyclic;
    }
    outlet
    {
        type            cyclic;
    }
    fixedWalls-bottom
    {
        type            nutkWallFunction;
        Cmu             0.09;
        kappa           0.41;
        E               9.8;
        value           uniform 0;
    }
    fixedWalls-top
    {
        type            symmetry;
    }
    frontAndBack
    {
        type            empty;
    }
}


// ************************************************************************* //
