/*--------------------------------*- C++ -*----------------------------------*\
  =========                 |
  \\      /  F ield         | OpenFOAM: The Open Source CFD Toolbox
   \\    /   O peration     | Website:  https://openfoam.org
    \\  /    A nd           | Version:  10
     \\/     M anipulation  |
\*---------------------------------------------------------------------------*/
FoamFile
{
    format      ascii;
    class       surfaceScalarField;
    location    "2500";
    object      phi;
}
// * * * * * * * * * * * * * * * * * * * * * * * * * * * * * * * * * * * * * //

dimensions      [0 3 -1 0 0 0 0];

internalField   nonuniform List<scalar> 
696
(
6.94822e-05
-4.29669e-10
6.94824e-05
-2.06009e-10
6.9482e-05
4.02486e-10
2.0604e-10
0.000211729
-1.60689e-09
0.000211729
-7.37759e-10
0.000211728
1.57954e-09
7.37831e-10
0.000359313
-3.54698e-09
0.000359314
-1.52806e-09
0.000359312
3.52014e-09
1.52818e-09
0.000512374
-6.24461e-09
0.000512375
-2.5136e-09
0.000512372
6.21762e-09
2.51375e-09
0.000671053
-9.68986e-09
0.000671054
-3.62496e-09
0.000671051
9.66338e-09
3.62516e-09
0.000835494
-1.38741e-08
0.000835495
-4.78616e-09
0.000835491
1.38475e-08
4.7864e-09
0.00100584
-1.87841e-08
0.00100584
-5.91446e-09
0.00100584
1.8758e-08
5.91474e-09
0.00118225
-2.44074e-08
0.00118225
-6.91973e-09
0.00118225
2.43813e-08
6.92005e-09
0.00136486
-3.07271e-08
0.00136486
-7.70442e-09
0.00136486
3.07014e-08
7.70479e-09
0.00155384
-3.77266e-08
0.00155384
-8.16293e-09
0.00155383
3.7701e-08
8.16333e-09
0.00174933
-4.53845e-08
0.00174933
-8.18171e-09
0.00174932
4.53593e-08
8.18217e-09
0.00195149
-5.36795e-08
0.00195149
-7.63891e-09
0.00195148
5.36543e-08
7.63939e-09
0.00216048
-6.25849e-08
0.00216048
-6.40484e-09
0.00216047
6.25602e-08
6.40537e-09
0.00237647
-7.20741e-08
0.00237647
-4.34244e-09
0.00237646
7.20495e-08
4.34301e-09
0.0025996
-8.21149e-08
0.0025996
-1.30921e-09
0.00259959
8.20908e-08
1.30983e-09
0.00283004
-9.26753e-08
0.00283004
2.83983e-09
0.00283003
9.26512e-08
-2.83918e-09
0.00306795
-1.03718e-07
0.00306795
8.24545e-09
0.00306794
1.03694e-07
-8.24476e-09
0.00331348
-1.15208e-07
0.00331347
1.50329e-08
0.00331346
1.15185e-07
-1.50322e-08
0.00356677
-1.27108e-07
0.00356676
2.32902e-08
0.00356675
1.27085e-07
-2.32894e-08
0.00382796
-1.39392e-07
0.00382795
3.30302e-08
0.00382793
1.39369e-07
-3.30294e-08
0.00409715
-1.52049e-07
0.00409714
4.4122e-08
0.00409712
1.52026e-07
-4.41212e-08
0.00437442
-1.65112e-07
0.00437441
5.61728e-08
0.0043744
1.65089e-07
-5.61719e-08
0.00465979
-1.78697e-07
0.00465978
6.83181e-08
0.00465976
1.78675e-07
-6.83171e-08
0.00495319
-1.93105e-07
0.00495318
7.89014e-08
0.00495316
1.93083e-07
-7.89004e-08
0.00525441
-2.08962e-07
0.0052544
8.49599e-08
0.00525439
2.0894e-07
-8.49589e-08
0.00556304
-2.27532e-07
0.00556304
8.13844e-08
0.00556302
2.27511e-07
-8.13834e-08
0.00587836
-2.5123e-07
0.00587838
5.96932e-08
0.00587836
2.51209e-07
-5.96921e-08
0.00620091
-2.78011e-07
0.00620094
2.62507e-08
0.00620092
2.7799e-07
-2.62496e-08
0.00653177
-3.0408e-07
0.0065318
-6.64477e-09
0.00653178
3.04059e-07
6.6459e-09
0.00687107
-3.2933e-07
0.00687111
-3.8352e-08
0.00687108
3.2931e-07
3.83531e-08
0.00721894
-3.5367e-07
0.00721897
-6.82625e-08
0.00721895
3.5365e-07
6.82637e-08
0.00757549
-3.76986e-07
0.00757552
-9.56829e-08
0.0075755
3.76966e-07
9.56841e-08
0.00794087
-3.99122e-07
0.00794089
-1.19834e-07
0.00794087
3.99103e-07
1.19835e-07
0.0083152
-4.19877e-07
0.00831522
-1.39852e-07
0.00831519
4.19858e-07
1.39853e-07
0.00869862
-4.39051e-07
0.00869863
-1.54936e-07
0.00869862
4.39032e-07
1.54937e-07
0.00909128
-4.56514e-07
0.00909129
-1.64484e-07
0.00909127
4.56495e-07
1.64485e-07
0.0094933
-4.7219e-07
0.0094933
-1.68056e-07
0.00949329
4.72171e-07
1.68057e-07
0.0099048
-4.86044e-07
0.00990479
-1.65334e-07
0.00990478
4.86026e-07
1.65335e-07
0.0103259
-4.98059e-07
0.0103259
-1.5609e-07
0.0103259
4.98041e-07
1.56092e-07
0.0107567
-5.08231e-07
0.0107566
-1.40166e-07
0.0107566
5.08214e-07
1.40168e-07
0.0111972
-5.16553e-07
0.0111972
-1.17465e-07
0.0111972
5.16535e-07
1.17467e-07
0.0116476
-5.23007e-07
0.0116476
-8.79472e-08
0.0116476
5.22989e-07
8.79487e-08
0.012108
-5.2755e-07
0.012108
-5.16319e-08
0.012108
5.27533e-07
5.16335e-08
0.0125784
-5.30117e-07
0.0125784
-8.60741e-09
0.0125784
5.30101e-07
8.60903e-09
0.013059
-5.30609e-07
0.0130589
4.09537e-08
0.0130589
5.30592e-07
-4.09521e-08
0.0135496
-5.28904e-07
0.0135496
9.67768e-08
0.0135496
5.28888e-07
-9.67751e-08
0.0140505
-5.24852e-07
0.0140505
1.58476e-07
0.0140505
5.24836e-07
-1.58475e-07
0.0145617
-5.183e-07
0.0145616
2.25555e-07
0.0145616
5.18284e-07
-2.25553e-07
0.0150832
-5.09102e-07
0.0150831
2.97387e-07
0.0150831
5.09087e-07
-2.97385e-07
0.015615
-4.97161e-07
0.0156149
3.73212e-07
0.015615
4.97146e-07
-3.7321e-07
0.0161573
-4.82427e-07
0.0161572
4.52125e-07
0.0161572
4.82412e-07
-4.52124e-07
0.0167099
-4.64927e-07
0.0167099
5.33078e-07
0.0167099
4.64912e-07
-5.33076e-07
0.017273
-4.44751e-07
0.017273
6.14866e-07
0.017273
4.44736e-07
-6.14865e-07
0.0178466
-4.22079e-07
0.0178465
6.96143e-07
0.0178466
4.22065e-07
-6.96141e-07
0.0184307
-3.97175e-07
0.0184306
7.75414e-07
0.0184306
3.97161e-07
-7.75412e-07
0.0190252
-3.70426e-07
0.0190251
8.51064e-07
0.0190252
3.70412e-07
-8.51063e-07
0.0196302
-3.42345e-07
0.0196302
9.21374e-07
0.0196302
3.42332e-07
-9.21372e-07
0.0202457
-3.13634e-07
0.0202457
9.84557e-07
0.0202457
3.1362e-07
-9.84555e-07
0.0208717
-2.85184e-07
0.0208716
1.0388e-06
0.0208717
2.85171e-07
-1.0388e-06
0.0215081
-2.58141e-07
0.0215081
1.08232e-06
0.0215081
2.58129e-07
-1.08232e-06
0.022155
-2.33909e-07
0.022155
1.11343e-06
0.022155
2.33897e-07
-1.11343e-06
0.0228123
-2.14187e-07
0.0228123
1.13058e-06
0.0228123
2.14175e-07
-1.13058e-06
0.0234801
-2.00935e-07
0.0234801
1.13243e-06
0.0234801
2.00923e-07
-1.13243e-06
0.0241582
-1.96333e-07
0.0241582
1.11795e-06
0.0241582
1.96322e-07
-1.11795e-06
0.0248468
-2.02649e-07
0.0248468
1.08654e-06
0.0248468
2.02637e-07
-1.08653e-06
0.0255457
-2.22084e-07
0.0255457
1.03814e-06
0.0255457
2.22073e-07
-1.03814e-06
0.026255
-2.56497e-07
0.0262551
9.7343e-07
0.026255
2.56486e-07
-9.73429e-07
0.0269747
-3.0704e-07
0.0269748
8.93877e-07
0.0269748
3.07029e-07
-8.93876e-07
0.0277049
-3.73615e-07
0.0277049
8.01873e-07
0.0277049
3.73605e-07
-8.01872e-07
0.0284454
-4.54182e-07
0.0284455
7.007e-07
0.0284454
4.54172e-07
-7.00698e-07
0.0291964
-5.43952e-07
0.0291965
5.94321e-07
0.0291964
5.43942e-07
-5.9432e-07
0.0299579
-6.3709e-07
0.029958
4.86944e-07
0.0299579
6.3708e-07
-4.86943e-07
0.03073
-7.29222e-07
0.0307301
3.83195e-07
0.03073
7.29212e-07
-3.83194e-07
0.0315127
-8.17693e-07
0.0315128
2.88364e-07
0.0315127
8.17684e-07
-2.88362e-07
0.0323061
-9.01218e-07
0.0323062
2.08074e-07
0.0323061
9.01209e-07
-2.08072e-07
0.0331102
-9.79512e-07
0.0331102
1.48273e-07
0.0331101
9.79504e-07
-1.48272e-07
0.0339249
-1.0528e-06
0.0339249
1.15311e-07
0.0339249
1.05279e-06
-1.15309e-07
0.0347503
-1.12111e-06
0.0347503
1.16069e-07
0.0347502
1.1211e-06
-1.16067e-07
0.0355863
-1.18346e-06
0.0355862
1.58018e-07
0.0355862
1.18345e-06
-1.58016e-07
0.0364328
-1.23686e-06
0.0364327
2.4913e-07
0.0364326
1.23686e-06
-2.49129e-07
0.0372899
-1.27364e-06
0.0372898
3.92383e-07
0.0372897
1.27363e-06
-3.92381e-07
0.0381659
-1.239e-06
0.0381658
4.52211e-07
0.0381658
1.239e-06
-4.5221e-07
0.0390673
-1.11025e-06
0.0390674
3.60829e-07
0.0390675
1.11025e-06
-3.60828e-07
0.0399875
-9.43312e-07
0.0399876
2.39023e-07
0.0399878
9.43306e-07
-2.39022e-07
0.0409187
-7.73128e-07
0.0409188
1.27428e-07
0.040919
7.73123e-07
-1.27427e-07
0.0418565
-6.1619e-07
0.0418566
3.95436e-08
0.0418568
6.16184e-07
-3.95424e-08
0.0427981
-4.76729e-07
0.0427981
-2.16195e-08
0.0427983
4.76725e-07
2.16207e-08
0.043741
-3.58551e-07
0.043741
-5.78408e-08
0.0437412
3.58547e-07
5.7842e-08
0.0446833
-2.62916e-07
0.0446834
-7.4216e-08
0.0446834
2.62912e-07
7.42172e-08
0.0456232
-1.88147e-07
0.0456232
-7.68396e-08
0.0456232
1.88143e-07
7.68407e-08
0.0465586
-1.31384e-07
0.0465586
-7.10047e-08
0.0465586
1.3138e-07
7.10058e-08
0.0474877
-8.94086e-08
0.0474876
-6.07972e-08
0.0474877
8.94056e-08
6.07982e-08
0.0484084
-5.91649e-08
0.0484084
-4.91056e-08
0.0484084
5.91623e-08
4.91065e-08
0.0493187
-3.79671e-08
0.0493187
-3.77596e-08
0.0493187
3.79649e-08
3.77604e-08
0.0502163
-2.35474e-08
0.0502163
-2.77481e-08
0.0502163
2.35457e-08
2.77488e-08
0.0510989
-1.4043e-08
0.0510989
-1.94599e-08
0.0510989
1.40417e-08
1.94605e-08
0.051964
-7.96926e-09
0.051964
-1.28773e-08
0.051964
7.96836e-09
1.28777e-08
0.0528089
-4.17251e-09
0.0528089
-7.69404e-09
0.0528089
4.17205e-09
7.69434e-09
0.0536309
-1.75046e-09
0.0536309
-3.52689e-09
0.0536309
1.75039e-09
3.52696e-09
0.0544269
0.0544269
0.0544269
)
;

boundaryField
{
    inlet
    {
        type            cyclic;
        value           nonuniform List<scalar> 
100
(
-0.0544269
-0.0536309
-0.0528089
-0.051964
-0.0510989
-0.0502163
-0.0493187
-0.0484084
-0.0474877
-0.0465586
-0.0456232
-0.0446834
-0.0437411
-0.0427982
-0.0418567
-0.0409189
-0.0399876
-0.0390674
-0.0381659
-0.0372899
-0.0364327
-0.0355862
-0.0347502
-0.0339248
-0.0331101
-0.032306
-0.0315126
-0.0307299
-0.0299578
-0.0291963
-0.0284453
-0.0277048
-0.0269747
-0.026255
-0.0255457
-0.0248468
-0.0241582
-0.0234801
-0.0228123
-0.022155
-0.0215082
-0.0208717
-0.0202458
-0.0196303
-0.0190252
-0.0184307
-0.0178466
-0.0172731
-0.01671
-0.0161573
-0.015615
-0.0150832
-0.0145617
-0.0140505
-0.0135496
-0.013059
-0.0125784
-0.012108
-0.0116476
-0.0111972
-0.0107566
-0.0103259
-0.00990478
-0.00949328
-0.00909126
-0.0086986
-0.00831517
-0.00794085
-0.00757547
-0.00721892
-0.00687105
-0.00653174
-0.00620088
-0.00587834
-0.00556302
-0.00525439
-0.00495317
-0.00465978
-0.00437441
-0.00409714
-0.00382794
-0.00356676
-0.00331347
-0.00306794
-0.00283003
-0.00259959
-0.00237646
-0.00216048
-0.00195148
-0.00174932
-0.00155383
-0.00136486
-0.00118224
-0.00100584
-0.00083549
-0.00067105
-0.000512371
-0.000359311
-0.000211727
-6.94818e-05
)
;
    }
    outlet
    {
        type            cyclic;
        value           nonuniform List<scalar> 
100
(
0.0544269
0.0536309
0.0528089
0.051964
0.0510989
0.0502163
0.0493187
0.0484084
0.0474877
0.0465586
0.0456232
0.0446834
0.0437411
0.0427982
0.0418567
0.0409189
0.0399876
0.0390674
0.0381659
0.0372899
0.0364327
0.0355862
0.0347502
0.0339248
0.0331101
0.032306
0.0315126
0.0307299
0.0299578
0.0291963
0.0284453
0.0277048
0.0269747
0.026255
0.0255457
0.0248468
0.0241582
0.0234801
0.0228123
0.022155
0.0215082
0.0208717
0.0202458
0.0196303
0.0190252
0.0184307
0.0178466
0.0172731
0.01671
0.0161573
0.015615
0.0150832
0.0145617
0.0140505
0.0135496
0.013059
0.0125784
0.012108
0.0116476
0.0111972
0.0107566
0.0103259
0.00990478
0.00949328
0.00909126
0.0086986
0.00831517
0.00794085
0.00757547
0.00721892
0.00687105
0.00653174
0.00620088
0.00587834
0.00556302
0.00525439
0.00495317
0.00465978
0.00437441
0.00409714
0.00382794
0.00356676
0.00331347
0.00306794
0.00283003
0.00259959
0.00237646
0.00216048
0.00195148
0.00174932
0.00155383
0.00136486
0.00118224
0.00100584
0.00083549
0.00067105
0.000512371
0.000359311
0.000211727
6.94818e-05
)
;
    }
    fixedWalls-bottom
    {
        type            calculated;
        value           uniform 0;
    }
    fixedWalls-top
    {
        type            symmetry;
        value           uniform 0;
    }
    frontAndBack
    {
        type            empty;
        value           nonuniform List<scalar> 0();
    }
}


// ************************************************************************* //
