/*--------------------------------*- C++ -*----------------------------------*\
  =========                 |
  \\      /  F ield         | OpenFOAM: The Open Source CFD Toolbox
   \\    /   O peration     | Website:  https://openfoam.org
    \\  /    A nd           | Version:  10
     \\/     M anipulation  |
\*---------------------------------------------------------------------------*/
FoamFile
{
    format      ascii;
    class       volSymmTensorField;
    location    "2500";
    object      R;
}
// * * * * * * * * * * * * * * * * * * * * * * * * * * * * * * * * * * * * * //

dimensions      [0 2 -2 0 0 0 0];

internalField   nonuniform List<symmTensor> 
400
(
(2.07416e-09 -5.93309e-14 -0 2.07416e-09 -0 2.07416e-09)
(2.07171e-09 -5.92611e-14 -0 2.07171e-09 -0 2.07171e-09)
(2.07096e-09 -5.92394e-14 -0 2.07096e-09 -0 2.07096e-09)
(2.07216e-09 -5.92733e-14 -0 2.07216e-09 -0 2.07216e-09)
(6.22297e-08 -1.03574e-11 -0 6.22297e-08 -0 6.22297e-08)
(6.21561e-08 -1.03452e-11 -0 6.21561e-08 -0 6.21561e-08)
(6.21334e-08 -1.03415e-11 -0 6.21334e-08 -0 6.21334e-08)
(6.21695e-08 -1.03474e-11 -0 6.21695e-08 -0 6.21695e-08)
(4.40742e-07 -2.17039e-10 -0 4.40742e-07 -0 4.40742e-07)
(4.4022e-07 -2.16783e-10 -0 4.4022e-07 -0 4.4022e-07)
(4.40059e-07 -2.16704e-10 -0 4.40059e-07 -0 4.40059e-07)
(4.40315e-07 -2.16828e-10 -0 4.40315e-07 -0 4.40315e-07)
(1.60252e-06 -1.67194e-09 -0 1.60252e-06 -0 1.60252e-06)
(1.60061e-06 -1.66997e-09 -0 1.60061e-06 -0 1.60061e-06)
(1.60003e-06 -1.66935e-09 -0 1.60003e-06 -0 1.60003e-06)
(1.60096e-06 -1.67031e-09 -0 1.60096e-06 -0 1.60096e-06)
(4.14692e-06 -7.61231e-09 -0 4.14692e-06 -0 4.14692e-06)
(4.14199e-06 -7.60329e-09 -0 4.14199e-06 -0 4.14199e-06)
(4.14048e-06 -7.60051e-09 -0 4.14048e-06 -0 4.14048e-06)
(4.14288e-06 -7.60491e-09 -0 4.14288e-06 -0 4.14288e-06)
(8.78338e-06 -2.52902e-08 -0 8.78338e-06 -0 8.78338e-06)
(8.77294e-06 -2.52601e-08 -0 8.77294e-06 -0 8.77294e-06)
(8.76974e-06 -2.52509e-08 -0 8.76974e-06 -0 8.76974e-06)
(8.77481e-06 -2.52656e-08 -0 8.77481e-06 -0 8.77481e-06)
(1.63259e-05 -6.82749e-08 -0 1.63259e-05 -0 1.63259e-05)
(1.63065e-05 -6.81929e-08 -0 1.63065e-05 -0 1.63065e-05)
(1.63005e-05 -6.81681e-08 -0 1.63005e-05 -0 1.63005e-05)
(1.63099e-05 -6.82085e-08 -0 1.63099e-05 -0 1.63099e-05)
(2.76935e-05 -1.59261e-07 -0 2.76935e-05 -0 2.76935e-05)
(2.76607e-05 -1.59068e-07 -0 2.76607e-05 -0 2.76607e-05)
(2.76506e-05 -1.5901e-07 -0 2.76506e-05 -0 2.76506e-05)
(2.76664e-05 -1.59106e-07 -0 2.76664e-05 -0 2.76664e-05)
(4.39133e-05 -3.33492e-07 -0 4.39133e-05 -0 4.39133e-05)
(4.38613e-05 -3.33083e-07 -0 4.38613e-05 -0 4.38613e-05)
(4.38453e-05 -3.32963e-07 -0 4.38453e-05 -0 4.38453e-05)
(4.38702e-05 -3.33169e-07 -0 4.38702e-05 -0 4.38702e-05)
(6.6123e-05 -6.43095e-07 -0 6.6123e-05 -0 6.6123e-05)
(6.60449e-05 -6.42296e-07 -0 6.60449e-05 -0 6.60449e-05)
(6.60207e-05 -6.42068e-07 -0 6.60207e-05 -0 6.60207e-05)
(6.60578e-05 -6.42478e-07 -0 6.60578e-05 -0 6.60578e-05)
(9.55713e-05 -1.16301e-06 -0 9.55713e-05 -0 9.55713e-05)
(9.5459e-05 -1.16154e-06 -0 9.5459e-05 -0 9.5459e-05)
(9.54239e-05 -1.16113e-06 -0 9.54239e-05 -0 9.54239e-05)
(9.54768e-05 -1.1619e-06 -0 9.54768e-05 -0 9.54768e-05)
(0.000133612 -1.99974e-06 -0 0.000133612 -0 0.000133612)
(0.000133456 -1.99714e-06 -0 0.000133456 -0 0.000133456)
(0.000133407 -1.99645e-06 -0 0.000133407 -0 0.000133407)
(0.00013348 -1.99783e-06 -0 0.00013348 -0 0.00013348)
(0.000181688 -3.30497e-06 -0 0.000181688 -0 0.000181688)
(0.000181477 -3.30051e-06 -0 0.000181477 -0 0.000181477)
(0.00018141 -3.29939e-06 -0 0.00018141 -0 0.00018141)
(0.000181507 -3.30177e-06 -0 0.000181507 -0 0.000181507)
(0.000241297 -5.2969e-06 -0 0.000241297 -0 0.000241297)
(0.00024102 -5.28938e-06 -0 0.00024102 -0 0.00024102)
(0.000240931 -5.28762e-06 -0 0.000240931 -0 0.000240931)
(0.000241055 -5.2916e-06 -0 0.000241055 -0 0.000241055)
(0.000313945 -8.29347e-06 -0 0.000313945 -0 0.000313945)
(0.000313589 -8.28088e-06 -0 0.000313589 -0 0.000313589)
(0.000313472 -8.27816e-06 -0 0.000313472 -0 0.000313472)
(0.000313629 -8.28463e-06 -0 0.000313629 -0 0.000313629)
(0.000401073 -1.27635e-05 -0 0.000401073 -0 0.000401073)
(0.000400626 -1.27424e-05 -0 0.000400626 -0 0.000400626)
(0.000400477 -1.27382e-05 -0 0.000400477 -0 0.000400477)
(0.00040067 -1.27485e-05 -0 0.00040067 -0 0.00040067)
(0.000503978 -1.94049e-05 -0 0.000503978 -0 0.000503978)
(0.00050343 -1.93694e-05 -0 0.00050343 -0 0.00050343)
(0.000503242 -1.93632e-05 -0 0.000503242 -0 0.000503242)
(0.000503475 -1.93793e-05 -0 0.000503475 -0 0.000503475)
(0.000623718 -2.92647e-05 -0 0.000623718 -0 0.000623718)
(0.00062306 -2.92048e-05 -0 0.00062306 -0 0.00062306)
(0.000622826 -2.91954e-05 -0 0.000622826 -0 0.000622826)
(0.000623101 -2.92205e-05 -0 0.000623101 -0 0.000623101)
(0.000761017 -4.3923e-05 -0 0.000761017 -0 0.000761017)
(0.000760245 -4.38211e-05 -0 0.000760245 -0 0.000760245)
(0.00075996 -4.38069e-05 -0 0.00075996 -0 0.00075996)
(0.000760279 -4.3846e-05 -0 0.000760279 -0 0.000760279)
(0.000916194 -6.57744e-05 -0 0.000916194 -0 0.000916194)
(0.000915309 -6.56005e-05 -0 0.000915309 -0 0.000915309)
(0.000914966 -6.55788e-05 -0 0.000914965 -0 0.000914965)
(0.00091533 -6.56404e-05 -0 0.00091533 -0 0.00091533)
(0.00108909 -9.84603e-05 -0 0.00108909 -0 0.00108909)
(0.0010881 -9.8163e-05 -0 0.0010881 -0 0.0010881)
(0.00108769 -9.81291e-05 -0 0.00108769 -0 0.00108769)
(0.0010881 -9.82281e-05 -0 0.0010881 -0 0.0010881)
(0.00127904 -0.000147522 -0 0.00127904 -0 0.00127904)
(0.00127796 -0.000147016 -0 0.00127796 -0 0.00127796)
(0.00127749 -0.000146961 -0 0.00127749 -0 0.00127749)
(0.00127794 -0.000147124 -0 0.00127794 -0 0.00127794)
(0.00148484 -0.000221378 -0 0.00148484 -0 0.00148484)
(0.0014837 -0.000220519 -0 0.0014837 -0 0.0014837)
(0.00148315 -0.000220423 -0 0.00148315 -0 0.00148315)
(0.00148365 -0.000220703 -0 0.00148365 -0 0.00148365)
(0.00170472 -0.000332711 -0 0.00170472 -0 0.00170472)
(0.00170355 -0.00033127 -0 0.00170355 -0 0.00170355)
(0.00170293 -0.000331115 -0 0.00170293 -0 0.00170293)
(0.00170345 -0.000331594 -0 0.00170345 -0 0.00170345)
(0.0019363 -0.000500317 -0 0.0019363 -0 0.0019363)
(0.00193514 -0.000497961 -0 0.00193514 -0 0.00193514)
(0.00193445 -0.000497681 -0 0.00193445 -0 0.00193445)
(0.00193499 -0.000498528 -0 0.001935 -0 0.00193499)
(0.00217649 -0.000751151 -0 0.00217649 -0 0.00217649)
(0.0021754 -0.000747427 -0 0.0021754 -0 0.0021754)
(0.00217464 -0.000746851 -0 0.00217464 -0 0.00217464)
(0.00217519 -0.000748433 -0 0.00217519 -0 0.00217519)
(0.00242134 -0.00112547 -0 0.00242134 -0 0.00242134)
(0.00242037 -0.0011197 -0 0.00242038 -0 0.00242037)
(0.00241956 -0.00111847 -0 0.00241955 -0 0.00241956)
(0.00242009 -0.0011215 -0 0.00242008 -0 0.00242008)
(0.00266723 -0.00124027 -0 0.00266724 -0 0.00266724)
(0.00266645 -0.0012399 -0 0.00266646 -0 0.00266646)
(0.0026656 -0.0012395 -0 0.00266559 -0 0.0026656)
(0.00266608 -0.00123972 -0 0.00266607 -0 0.00266607)
(0.00291288 -0.00135449 -0 0.00291288 -0 0.00291288)
(0.00291228 -0.00135421 -0 0.00291229 -0 0.00291229)
(0.0029114 -0.0013538 -0 0.00291139 -0 0.00291139)
(0.00291182 -0.00135399 -0 0.00291181 -0 0.00291181)
(0.0031562 -0.00146764 -0 0.00315621 -0 0.0031562)
(0.00315581 -0.00146746 -0 0.00315582 -0 0.00315582)
(0.0031549 -0.00146703 -0 0.0031549 -0 0.0031549)
(0.00315526 -0.00146719 -0 0.00315525 -0 0.00315525)
(0.00339528 -0.00157881 -0 0.00339529 -0 0.00339529)
(0.00339512 -0.00157873 -0 0.00339513 -0 0.00339512)
(0.0033942 -0.0015783 -0 0.00339419 -0 0.0033942)
(0.00339446 -0.00157842 -0 0.00339445 -0 0.00339446)
(0.00362835 -0.00168719 -0 0.00362836 -0 0.00362836)
(0.00362843 -0.00168722 -0 0.00362844 -0 0.00362843)
(0.00362751 -0.00168679 -0 0.0036275 -0 0.0036275)
(0.00362767 -0.00168686 -0 0.00362766 -0 0.00362766)
(0.00385378 -0.00179201 -0 0.00385379 -0 0.00385379)
(0.00385411 -0.00179216 -0 0.00385412 -0 0.00385411)
(0.00385319 -0.00179173 -0 0.00385318 -0 0.00385319)
(0.00385324 -0.00179175 -0 0.00385323 -0 0.00385324)
(0.00407009 -0.00189259 -0 0.00407009 -0 0.00407009)
(0.00407068 -0.00189287 -0 0.00407069 -0 0.00407068)
(0.00406977 -0.00189244 -0 0.00406976 -0 0.00406976)
(0.00406969 -0.00189241 -0 0.00406969 -0 0.00406969)
(0.00427602 -0.00198835 -0 0.00427603 -0 0.00427602)
(0.0042768 -0.00198871 -0 0.00427681 -0 0.0042768)
(0.00427585 -0.00198827 -0 0.00427584 -0 0.00427585)
(0.00427576 -0.00198823 -0 0.00427575 -0 0.00427575)
(0.00447414 -0.00208048 -0 0.00447415 -0 0.00447414)
(0.00447505 -0.0020809 -0 0.00447505 -0 0.00447505)
(0.00447403 -0.00208042 -0 0.00447402 -0 0.00447403)
(0.004474 -0.00208041 -0 0.00447399 -0 0.00447399)
(0.00466631 -0.00216984 -0 0.00466632 -0 0.00466632)
(0.00466728 -0.00217029 -0 0.00466728 -0 0.00466728)
(0.00466619 -0.00216978 -0 0.00466618 -0 0.00466618)
(0.00466627 -0.00216982 -0 0.00466627 -0 0.00466627)
(0.00485384 -0.00225704 -0 0.00485385 -0 0.00485385)
(0.00485482 -0.00225749 -0 0.00485482 -0 0.00485482)
(0.00485365 -0.00225695 -0 0.00485365 -0 0.00485365)
(0.0048539 -0.00225706 -0 0.0048539 -0 0.0048539)
(0.0050376 -0.00234248 -0 0.0050376 -0 0.0050376)
(0.00503855 -0.00234292 -0 0.00503854 -0 0.00503855)
(0.00503731 -0.00234235 -0 0.0050373 -0 0.0050373)
(0.00503774 -0.00234255 -0 0.00503775 -0 0.00503774)
(0.00521811 -0.00242642 -0 0.00521811 -0 0.00521811)
(0.005219 -0.00242683 -0 0.00521899 -0 0.005219)
(0.00521769 -0.00242622 -0 0.00521768 -0 0.00521769)
(0.00521835 -0.00242653 -0 0.00521835 -0 0.00521835)
(0.00539566 -0.00250899 -0 0.00539567 -0 0.00539567)
(0.00539647 -0.00250935 -0 0.00539645 -0 0.00539646)
(0.00539509 -0.00250872 -0 0.00539509 -0 0.00539509)
(0.005396 -0.00250914 -0 0.00539601 -0 0.005396)
(0.00557036 -0.00259022 -0 0.00557036 -0 0.00557036)
(0.00557105 -0.00259053 -0 0.00557103 -0 0.00557104)
(0.00556961 -0.00258987 -0 0.00556961 -0 0.00556961)
(0.00557079 -0.00259042 -0 0.0055708 -0 0.00557079)
(0.00574214 -0.0026701 -0 0.00574215 -0 0.00574215)
(0.00574269 -0.00267035 -0 0.00574267 -0 0.00574268)
(0.0057412 -0.00266966 -0 0.0057412 -0 0.0057412)
(0.00574267 -0.00267035 -0 0.00574269 -0 0.00574268)
(0.00591087 -0.00274855 -0 0.00591087 -0 0.00591087)
(0.00591124 -0.00274872 -0 0.00591122 -0 0.00591123)
(0.0059097 -0.00274801 -0 0.0059097 -0 0.0059097)
(0.00591149 -0.00274885 -0 0.00591152 -0 0.00591151)
(0.00607629 -0.00282547 -0 0.00607629 -0 0.00607629)
(0.00607647 -0.00282555 -0 0.00607644 -0 0.00607646)
(0.00607487 -0.00282482 -0 0.00607487 -0 0.00607487)
(0.00607702 -0.00282582 -0 0.00607705 -0 0.00607704)
(0.0062381 -0.00290072 -0 0.0062381 -0 0.0062381)
(0.00623807 -0.00290069 -0 0.00623803 -0 0.00623805)
(0.00623641 -0.00289993 -0 0.00623641 -0 0.00623641)
(0.00623895 -0.00290112 -0 0.00623899 -0 0.00623897)
(0.00639595 -0.00297411 -0 0.00639594 -0 0.00639594)
(0.00639567 -0.00297398 -0 0.00639563 -0 0.00639565)
(0.00639394 -0.00297318 -0 0.00639395 -0 0.00639395)
(0.00639692 -0.00297458 -0 0.00639696 -0 0.00639694)
(0.00654941 -0.00304547 -0 0.00654941 -0 0.00654941)
(0.00654887 -0.00304522 -0 0.00654883 -0 0.00654885)
(0.00654708 -0.00304439 -0 0.00654708 -0 0.00654708)
(0.00655053 -0.00304601 -0 0.00655058 -0 0.00655056)
(0.00669805 -0.00311459 -0 0.00669804 -0 0.00669804)
(0.00669722 -0.0031142 -0 0.00669717 -0 0.0066972)
(0.00669536 -0.00311334 -0 0.00669536 -0 0.00669536)
(0.00669934 -0.0031152 -0 0.00669939 -0 0.00669936)
(0.00684137 -0.00318123 -0 0.00684136 -0 0.00684136)
(0.00684023 -0.00318069 -0 0.00684018 -0 0.0068402)
(0.0068383 -0.00317981 -0 0.00683831 -0 0.0068383)
(0.00684285 -0.00318194 -0 0.00684291 -0 0.00684288)
(0.00697885 -0.00324516 -0 0.00697883 -0 0.00697884)
(0.00697737 -0.00324446 -0 0.00697731 -0 0.00697734)
(0.00697538 -0.00324356 -0 0.00697539 -0 0.00697539)
(0.00698054 -0.00324597 -0 0.0069806 -0 0.00698057)
(0.00710991 -0.00330611 -0 0.0071099 -0 0.00710991)
(0.00710808 -0.00330524 -0 0.00710802 -0 0.00710805)
(0.00710604 -0.00330431 -0 0.00710605 -0 0.00710604)
(0.00711185 -0.00330703 -0 0.00711192 -0 0.00711189)
(0.00723396 -0.00336379 -0 0.00723394 -0 0.00723395)
(0.00723177 -0.00336276 -0 0.0072317 -0 0.00723174)
(0.00722967 -0.0033618 -0 0.00722968 -0 0.00722967)
(0.00723617 -0.00336483 -0 0.00723624 -0 0.0072362)
(0.00735033 -0.0034179 -0 0.00735031 -0 0.00735032)
(0.00734778 -0.0034167 -0 0.00734772 -0 0.00734775)
(0.00734562 -0.00341572 -0 0.00734564 -0 0.00734563)
(0.00735285 -0.00341909 -0 0.00735291 -0 0.00735288)
(0.00745834 -0.00346812 -0 0.00745832 -0 0.00745833)
(0.00745544 -0.00346676 -0 0.00745537 -0 0.0074554)
(0.00745321 -0.00346575 -0 0.00745323 -0 0.00745322)
(0.00746119 -0.00346947 -0 0.00746125 -0 0.00746122)
(0.00755724 -0.00351411 -0 0.00755721 -0 0.00755722)
(0.007554 -0.0035126 -0 0.00755394 -0 0.00755397)
(0.0075517 -0.00351155 -0 0.00755172 -0 0.00755171)
(0.00756045 -0.00351562 -0 0.00756051 -0 0.00756048)
(0.00764623 -0.00355549 -0 0.0076462 -0 0.00764622)
(0.00764269 -0.00355384 -0 0.00764263 -0 0.00764266)
(0.00764031 -0.00355275 -0 0.00764034 -0 0.00764032)
(0.00764984 -0.00355719 -0 0.0076499 -0 0.00764987)
(0.00772447 -0.00359187 -0 0.00772445 -0 0.00772446)
(0.00772066 -0.00359009 -0 0.0077206 -0 0.00772063)
(0.00771821 -0.00358897 -0 0.00771824 -0 0.00771822)
(0.00772851 -0.00359377 -0 0.00772857 -0 0.00772854)
(0.00779107 -0.00362284 -0 0.00779104 -0 0.00779105)
(0.00778703 -0.00362096 -0 0.00778698 -0 0.007787)
(0.0077845 -0.0036198 -0 0.00778453 -0 0.00778452)
(0.00779557 -0.00362495 -0 0.00779562 -0 0.0077956)
(0.00784506 -0.00364795 -0 0.00784504 -0 0.00784505)
(0.00784084 -0.00364598 -0 0.0078408 -0 0.00784082)
(0.00783825 -0.00364479 -0 0.00783828 -0 0.00783826)
(0.00785005 -0.00365028 -0 0.00785009 -0 0.00785007)
(0.00788544 -0.00366672 -0 0.00788542 -0 0.00788543)
(0.0078811 -0.0036647 -0 0.00788107 -0 0.00788108)
(0.00787845 -0.00366348 -0 0.00787847 -0 0.00787846)
(0.00789093 -0.00366929 -0 0.00789096 -0 0.00789095)
(0.00791114 -0.00367868 -0 0.00791112 -0 0.00791113)
(0.00790673 -0.00367663 -0 0.00790671 -0 0.00790672)
(0.00790403 -0.00367538 -0 0.00790405 -0 0.00790404)
(0.00791712 -0.00368147 -0 0.00791714 -0 0.00791713)
(0.00792104 -0.00368328 -0 0.00792103 -0 0.00792104)
(0.00791662 -0.00368123 -0 0.00791662 -0 0.00791662)
(0.00791388 -0.00367996 -0 0.00791389 -0 0.00791389)
(0.00792748 -0.00368628 -0 0.00792748 -0 0.00792748)
(0.00791395 -0.00367999 -0 0.00791395 -0 0.00791395)
(0.00790958 -0.00367796 -0 0.00790959 -0 0.00790959)
(0.00790681 -0.00367667 -0 0.00790682 -0 0.00790681)
(0.00792078 -0.00368316 -0 0.00792076 -0 0.00792077)
(0.00788863 -0.00366821 -0 0.00788863 -0 0.00788863)
(0.00788438 -0.00366624 -0 0.00788441 -0 0.0078844)
(0.00788158 -0.00366493 -0 0.00788158 -0 0.00788158)
(0.00789574 -0.00367151 -0 0.00789571 -0 0.00789573)
(0.00784377 -0.00364736 -0 0.00784379 -0 0.00784378)
(0.00783973 -0.00364549 -0 0.00783978 -0 0.00783976)
(0.0078369 -0.00364416 -0 0.00783689 -0 0.0078369)
(0.00785103 -0.00365072 -0 0.00785098 -0 0.00785101)
(0.00777806 -0.00361681 -0 0.00777809 -0 0.00777808)
(0.0077743 -0.00361506 -0 0.00777436 -0 0.00777433)
(0.00777144 -0.00361371 -0 0.0077714 -0 0.00777142)
(0.00778525 -0.00362013 -0 0.00778519 -0 0.00778522)
(0.00769011 -0.00357591 -0 0.00769016 -0 0.00769014)
(0.0076867 -0.00357434 -0 0.00768678 -0 0.00768674)
(0.0076838 -0.00357295 -0 0.00768375 -0 0.00768377)
(0.00769696 -0.00357907 -0 0.00769689 -0 0.00769692)
(0.00757854 -0.00352403 -0 0.0075786 -0 0.00757857)
(0.00757554 -0.00352265 -0 0.00757563 -0 0.00757558)
(0.00757258 -0.00352123 -0 0.00757251 -0 0.00757254)
(0.00758467 -0.00352685 -0 0.00758458 -0 0.00758463)
(0.00744191 -0.00346051 -0 0.00744199 -0 0.00744195)
(0.00743937 -0.00345933 -0 0.00743946 -0 0.00743941)
(0.00743632 -0.00345787 -0 0.00743624 -0 0.00743628)
(0.00744685 -0.00346276 -0 0.00744675 -0 0.0074468)
(0.0072788 -0.00338466 -0 0.00727889 -0 0.00727885)
(0.00727668 -0.00338368 -0 0.00727678 -0 0.00727673)
(0.00727353 -0.00338217 -0 0.00727345 -0 0.00727349)
(0.00728189 -0.00338606 -0 0.00728179 -0 0.00728184)
(0.0070876 -0.00329575 -0 0.00708769 -0 0.00708764)
(0.00708579 -0.00329492 -0 0.0070859 -0 0.00708584)
(0.00708253 -0.00329336 -0 0.00708244 -0 0.00708249)
(0.00708895 -0.00329634 -0 0.00708885 -0 0.0070889)
(0.00686842 -0.00319383 -0 0.0068685 -0 0.00686846)
(0.00686697 -0.00319316 -0 0.00686706 -0 0.00686701)
(0.00686364 -0.00319157 -0 0.00686355 -0 0.0068636)
(0.00686842 -0.00319379 -0 0.00686832 -0 0.00686837)
(0.00662188 -0.00307919 -0 0.00662196 -0 0.00662192)
(0.00662072 -0.00307866 -0 0.00662081 -0 0.00662076)
(0.00661738 -0.00307706 -0 0.0066173 -0 0.00661734)
(0.00662077 -0.00307864 -0 0.00662068 -0 0.00662073)
(0.0063487 -0.00295217 -0 0.00634878 -0 0.00634874)
(0.0063478 -0.00295174 -0 0.00634787 -0 0.00634783)
(0.00634446 -0.00295016 -0 0.00634439 -0 0.00634443)
(0.00634673 -0.00295121 -0 0.00634666 -0 0.0063467)
(0.00604985 -0.0028132 -0 0.00604992 -0 0.00604988)
(0.00604918 -0.00281288 -0 0.00604923 -0 0.0060492)
(0.00604584 -0.0028113 -0 0.00604577 -0 0.0060458)
(0.00604726 -0.00281197 -0 0.00604721 -0 0.00604724)
(0.0057266 -0.00266288 -0 0.00572666 -0 0.00572663)
(0.00572618 -0.00266268 -0 0.00572621 -0 0.0057262)
(0.00572278 -0.00266108 -0 0.00572272 -0 0.00572275)
(0.00572365 -0.00266149 -0 0.00572362 -0 0.00572364)
(0.00538061 -0.002502 -0 0.00538066 -0 0.00538064)
(0.00538049 -0.00250193 -0 0.00538049 -0 0.00538049)
(0.00537695 -0.00250027 -0 0.0053769 -0 0.00537692)
(0.00537751 -0.00250054 -0 0.00537751 -0 0.00537751)
(0.00501391 -0.00233148 -0 0.00501396 -0 0.00501394)
(0.0050141 -0.00233155 -0 0.00501407 -0 0.00501409)
(0.00501035 -0.0023298 -0 0.0050103 -0 0.00501033)
(0.00501081 -0.00233004 -0 0.00501085 -0 0.00501083)
(0.00462863 -0.00215232 -0 0.00462867 -0 0.00462864)
(0.00462909 -0.00215251 -0 0.00462902 -0 0.00462906)
(0.00462511 -0.00215067 -0 0.00462507 -0 0.00462509)
(0.00462561 -0.00215092 -0 0.00462568 -0 0.00462564)
(0.00422682 -0.00196548 -0 0.00422684 -0 0.00422683)
(0.00422748 -0.00196576 -0 0.0042274 -0 0.00422743)
(0.00422332 -0.00196384 -0 0.00422331 -0 0.00422331)
(0.00422391 -0.00196414 -0 0.00422399 -0 0.00422396)
(0.00380339 -0.00127262 -0 0.00380337 -0 0.00380338)
(0.00380421 -0.0012777 -0 0.00380418 -0 0.00380419)
(0.00379963 -0.00125329 -0 0.00379965 -0 0.00379964)
(0.00380061 -0.00127052 -0 0.00380063 -0 0.00380063)
(0.00336234 -0.000722072 -0 0.00336231 -0 0.00336233)
(0.00336321 -0.000724788 -0 0.00336323 -0 0.00336322)
(0.00335841 -0.000714026 -0 0.00335843 -0 0.00335842)
(0.00335975 -0.000721792 -0 0.00335973 -0 0.00335974)
(0.00292474 -0.000442062 -0 0.00292472 -0 0.00292473)
(0.00292543 -0.000442906 -0 0.00292545 -0 0.00292544)
(0.00292102 -0.000437853 -0 0.00292104 -0 0.00292103)
(0.00292238 -0.000441836 -0 0.00292236 -0 0.00292237)
(0.00250964 -0.000285449 -0 0.00250963 -0 0.00250963)
(0.00250998 -0.000284904 -0 0.00250999 -0 0.00250999)
(0.00250632 -0.00028315 -0 0.00250633 -0 0.00250633)
(0.00250752 -0.000285058 -0 0.0025075 -0 0.00250751)
(0.00212837 -0.000191065 -0 0.00212836 -0 0.00212836)
(0.00212839 -0.000190626 -0 0.0021284 -0 0.0021284)
(0.00212553 -0.000189798 -0 0.00212554 -0 0.00212553)
(0.00212653 -0.000190775 -0 0.00212652 -0 0.00212652)
(0.00178661 -0.000131365 -0 0.0017866 -0 0.0017866)
(0.00178639 -0.000131 -0 0.0017864 -0 0.0017864)
(0.00178428 -0.000130763 -0 0.00178428 -0 0.00178428)
(0.00178511 -0.000131226 -0 0.0017851 -0 0.00178511)
(0.0014863 -9.19253e-05 -0 0.0014863 -0 0.0014863)
(0.00148591 -9.1559e-05 -0 0.00148591 -0 0.00148591)
(0.00148444 -9.168e-05 -0 0.00148445 -0 0.00148444)
(0.00148516 -9.18946e-05 -0 0.00148516 -0 0.00148516)
(0.00122682 -6.49264e-05 -0 0.00122682 -0 0.00122682)
(0.00122634 -6.46399e-05 -0 0.00122634 -0 0.00122634)
(0.00122535 -6.4812e-05 -0 0.00122535 -0 0.00122535)
(0.00122602 -6.49483e-05 -0 0.00122602 -0 0.00122602)
(0.00100581 -4.59324e-05 -0 0.00100581 -0 0.00100581)
(0.00100532 -4.57463e-05 -0 0.00100532 -0 0.00100532)
(0.00100465 -4.58728e-05 -0 0.00100465 -0 0.00100465)
(0.00100533 -4.59963e-05 -0 0.00100533 -0 0.00100533)
(0.000819979 -3.23867e-05 -0 0.000819979 -0 0.000819979)
(0.000819526 -3.22796e-05 -0 0.000819526 -0 0.000819526)
(0.000819054 -3.23509e-05 -0 0.000819055 -0 0.000819054)
(0.000819762 -3.24669e-05 -0 0.000819762 -0 0.000819762)
(0.00066563 -2.26779e-05 -0 0.00066563 -0 0.00066563)
(0.000665245 -2.26239e-05 -0 0.000665245 -0 0.000665245)
(0.000664879 -2.26536e-05 -0 0.000664879 -0 0.000664879)
(0.000665622 -2.276e-05 -0 0.000665622 -0 0.000665622)
(0.000539021 -1.57278e-05 -0 0.000539021 -0 0.000539021)
(0.000538704 -1.5707e-05 -0 0.000538704 -0 0.000538704)
(0.000538396 -1.57109e-05 -0 0.000538397 -0 0.000538397)
(0.000539165 -1.58068e-05 -0 0.000539165 -0 0.000539165)
(0.000436572 -1.07799e-05 -0 0.000436571 -0 0.000436572)
(0.000436329 -1.07775e-05 -0 0.000436329 -0 0.000436329)
(0.000436055 -1.07707e-05 -0 0.000436055 -0 0.000436055)
(0.000436829 -1.08516e-05 -0 0.00043683 -0 0.000436829)
(0.000355031 -7.2917e-06 -0 0.000355031 -0 0.000355031)
(0.000354857 -7.29771e-06 -0 0.000354857 -0 0.000354857)
(0.00035461 -7.28919e-06 -0 0.00035461 -0 0.00035461)
(0.00035537 -7.35268e-06 -0 0.00035537 -0 0.00035537)
(0.00029153 -4.85313e-06 -0 0.00029153 -0 0.00029153)
(0.00029141 -4.86154e-06 -0 0.00029141 -0 0.00029141)
(0.000291191 -4.85479e-06 -0 0.000291192 -0 0.000291191)
(0.000291921 -4.90163e-06 -0 0.000291921 -0 0.000291921)
(0.000243625 -3.14995e-06 -0 0.000243625 -0 0.000243625)
(0.000243542 -3.15763e-06 -0 0.000243542 -0 0.000243542)
(0.000243355 -3.15345e-06 -0 0.000243355 -0 0.000243355)
(0.000244044 -3.18589e-06 -0 0.000244044 -0 0.000244044)
(0.000209342 -1.94471e-06 -0 0.000209342 -0 0.000209342)
(0.000209281 -1.9504e-06 -0 0.000209281 -0 0.000209281)
(0.000209123 -1.94832e-06 -0 0.000209123 -0 0.000209123)
(0.000209773 -1.9691e-06 -0 0.000209773 -0 0.000209773)
(0.000187213 -1.05454e-06 -0 0.000187213 -0 0.000187213)
(0.000187163 -1.0579e-06 -0 0.000187163 -0 0.000187163)
(0.000187029 -1.05712e-06 -0 0.000187029 -0 0.000187029)
(0.000187646 -1.06855e-06 -0 0.000187646 -0 0.000187646)
(0.000176316 -3.35255e-07 -0 0.000176316 -0 0.000176316)
(0.00017627 -3.36335e-07 -0 0.00017627 -0 0.00017627)
(0.000176148 -3.36178e-07 -0 0.000176148 -0 0.000176148)
(0.000176747 -3.39801e-07 -0 0.000176747 -0 0.000176747)
)
;

boundaryField
{
    inlet
    {
        type            cyclic;
    }
    outlet
    {
        type            cyclic;
    }
    fixedWalls-bottom
    {
        type            kqRWallFunction;
        value           nonuniform List<symmTensor> 4((2.07416e-09 -0 -0 2.07416e-09 -0 2.07416e-09) (2.07171e-09 -0 -0 2.07171e-09 -0 2.07171e-09) (2.07096e-09 -0 -0 2.07096e-09 -0 2.07096e-09) (2.07216e-09 -0 -0 2.07216e-09 -0 2.07216e-09));
    }
    fixedWalls-top
    {
        type            symmetry;
    }
    frontAndBack
    {
        type            empty;
    }
}


// ************************************************************************* //
