/*--------------------------------*- C++ -*----------------------------------*\
  =========                 |
  \\      /  F ield         | OpenFOAM: The Open Source CFD Toolbox
   \\    /   O peration     | Website:  https://openfoam.org
    \\  /    A nd           | Version:  10
     \\/     M anipulation  |
\*---------------------------------------------------------------------------*/
FoamFile
{
    format      ascii;
    class       volScalarField;
    location    "7500";
    object      nut;
}
// * * * * * * * * * * * * * * * * * * * * * * * * * * * * * * * * * * * * * //

dimensions      [0 2 -1 0 0 0 0];

internalField   nonuniform List<scalar> 
400
(
3.60082e-21
3.60082e-21
3.60082e-21
3.60082e-21
2.19579e-20
2.19579e-20
2.19579e-20
2.19579e-20
6.65841e-20
6.65841e-20
6.65841e-20
6.65841e-20
1.43108e-19
1.43109e-19
1.43109e-19
1.43109e-19
2.5353e-19
2.53533e-19
2.53533e-19
2.53535e-19
3.97445e-19
3.97456e-19
3.97456e-19
3.97463e-19
5.73852e-19
5.73877e-19
5.73878e-19
5.73893e-19
7.83247e-19
7.83287e-19
7.83287e-19
7.83309e-19
1.02825e-18
1.0283e-18
1.0283e-18
1.02832e-18
1.31156e-18
1.31161e-18
1.3116e-18
1.31163e-18
1.63477e-18
1.63483e-18
1.63482e-18
1.63485e-18
1.99902e-18
1.9991e-18
1.99908e-18
1.99911e-18
2.40512e-18
2.40522e-18
2.4052e-18
2.40523e-18
2.85355e-18
2.85368e-18
2.85366e-18
2.85368e-18
3.34433e-18
3.34451e-18
3.34451e-18
3.34451e-18
3.87701e-18
3.87728e-18
3.87729e-18
3.87728e-18
4.45061e-18
4.45101e-18
4.45105e-18
4.45101e-18
5.06358e-18
5.06415e-18
5.06425e-18
5.06417e-18
5.71376e-18
5.71457e-18
5.71475e-18
5.71462e-18
6.39844e-18
6.39959e-18
6.39988e-18
6.39968e-18
7.1144e-18
7.11598e-18
7.11644e-18
7.11616e-18
7.85801e-18
7.86013e-18
7.86081e-18
7.86043e-18
8.6253e-18
8.62809e-18
8.62906e-18
8.62857e-18
9.41214e-18
9.41571e-18
9.41708e-18
9.41645e-18
1.02143e-17
1.02188e-17
1.02207e-17
1.02199e-17
1.10278e-17
1.10332e-17
1.10357e-17
1.10348e-17
1.18485e-17
1.18551e-17
1.18583e-17
1.18572e-17
1.26728e-17
1.26805e-17
1.26847e-17
1.26835e-17
1.34973e-17
1.35062e-17
1.35115e-17
1.35102e-17
1.4319e-17
1.43289e-17
1.43355e-17
1.43342e-17
1.51351e-17
1.51459e-17
1.5154e-17
1.51529e-17
1.5943e-17
1.59546e-17
1.59645e-17
1.59636e-17
1.67406e-17
1.67526e-17
1.67644e-17
1.67642e-17
1.75257e-17
1.75379e-17
1.75517e-17
1.75528e-17
1.82965e-17
1.83085e-17
1.83244e-17
1.8327e-17
1.9051e-17
1.90626e-17
1.90803e-17
1.90852e-17
1.97873e-17
1.97984e-17
1.98178e-17
1.98254e-17
2.05038e-17
2.05142e-17
2.05348e-17
2.05459e-17
2.11986e-17
2.12085e-17
2.12296e-17
2.1245e-17
2.18703e-17
2.18795e-17
2.19008e-17
2.19211e-17
2.25173e-17
2.25259e-17
2.25469e-17
2.25727e-17
2.31383e-17
2.31463e-17
2.31668e-17
2.31986e-17
2.37324e-17
2.37399e-17
2.37599e-17
2.37979e-17
2.42991e-17
2.43061e-17
2.43258e-17
2.43698e-17
2.48381e-17
2.48447e-17
2.48645e-17
2.49142e-17
2.53498e-17
2.53562e-17
2.53763e-17
2.54317e-17
2.58351e-17
2.58414e-17
2.58619e-17
2.5923e-17
2.62956e-17
2.63017e-17
2.63229e-17
2.63898e-17
2.67332e-17
2.67394e-17
2.67614e-17
2.68342e-17
2.71507e-17
2.71569e-17
2.71799e-17
2.72588e-17
2.75515e-17
2.75577e-17
2.75818e-17
2.7667e-17
2.79395e-17
2.79459e-17
2.79712e-17
2.8063e-17
2.83198e-17
2.83263e-17
2.8353e-17
2.84515e-17
2.86983e-17
2.87053e-17
2.87333e-17
2.88389e-17
2.90823e-17
2.90899e-17
2.91192e-17
2.92323e-17
2.94785e-17
2.94872e-17
2.95176e-17
2.96386e-17
2.98926e-17
2.99027e-17
2.99338e-17
3.00635e-17
3.03289e-17
3.03407e-17
3.0372e-17
3.05111e-17
3.07905e-17
3.08041e-17
3.0835e-17
3.09845e-17
3.12788e-17
3.1293e-17
3.13245e-17
3.14846e-17
3.17928e-17
3.18064e-17
3.18398e-17
3.201e-17
3.23298e-17
3.2343e-17
3.23792e-17
3.25582e-17
3.2887e-17
3.28994e-17
3.29395e-17
3.31265e-17
3.34615e-17
3.34711e-17
3.35185e-17
3.37124e-17
3.4051e-17
3.40542e-17
3.41145e-17
3.43144e-17
3.46539e-17
3.46493e-17
3.47261e-17
3.49318e-17
3.52696e-17
3.52667e-17
3.53487e-17
3.55651e-17
3.58993e-17
3.59e-17
3.59854e-17
3.62149e-17
3.6552e-17
3.65496e-17
3.66377e-17
3.68822e-17
3.72279e-17
3.72195e-17
3.73071e-17
3.75682e-17
3.79212e-17
3.79066e-17
3.79998e-17
3.82736e-17
3.86355e-17
3.86162e-17
3.87149e-17
3.90008e-17
3.93738e-17
3.9351e-17
3.94537e-17
3.97516e-17
4.0138e-17
4.01123e-17
4.02183e-17
4.05282e-17
4.09297e-17
4.09003e-17
4.10111e-17
4.13323e-17
4.17505e-17
4.17149e-17
4.18345e-17
4.2166e-17
4.26018e-17
4.25581e-17
4.26901e-17
4.30309e-17
4.34852e-17
4.34357e-17
4.35777e-17
4.39289e-17
4.44019e-17
4.43555e-17
4.44963e-17
4.48616e-17
4.53519e-17
4.53212e-17
4.54453e-17
4.58306e-17
4.63323e-17
4.63401e-17
4.64223e-17
4.68378e-17
4.73336e-17
4.7403e-17
4.74275e-17
4.78849e-17
4.83313e-17
4.84846e-17
4.84674e-17
4.89719e-17
4.94116e-17
4.9582e-17
4.95594e-17
5.00899e-17
5.05308e-17
5.07161e-17
5.06937e-17
5.12382e-17
5.16872e-17
5.18822e-17
5.18569e-17
5.24214e-17
5.28805e-17
5.30766e-17
5.30485e-17
5.36369e-17
5.41118e-17
5.42956e-17
5.42719e-17
5.48789e-17
5.53882e-17
5.55307e-17
5.55457e-17
5.61363e-17
5.67376e-17
5.67545e-17
5.68649e-17
5.74065e-17
5.8016e-17
5.79752e-17
5.82562e-17
5.86706e-17
5.92921e-17
5.92543e-17
5.95619e-17
5.99596e-17
6.05577e-17
6.0517e-17
6.08381e-17
6.1245e-17
6.17971e-17
6.17469e-17
6.2071e-17
6.25094e-17
6.29883e-17
6.29296e-17
6.32304e-17
6.37328e-17
6.41028e-17
6.40656e-17
6.43037e-17
6.48866e-17
6.51088e-17
6.52289e-17
6.53055e-17
6.59216e-17
6.60016e-17
6.61112e-17
6.62002e-17
6.68454e-17
6.67327e-17
6.67528e-17
6.69388e-17
6.76171e-17
6.72457e-17
6.73988e-17
6.73527e-17
6.81985e-17
)
;

boundaryField
{
    inlet
    {
        type            cyclic;
    }
    outlet
    {
        type            cyclic;
    }
    fixedWalls-bottom
    {
        type            nutkWallFunction;
        Cmu             0.09;
        kappa           0.41;
        E               9.8;
        value           uniform 0;
    }
    fixedWalls-top
    {
        type            symmetry;
    }
    frontAndBack
    {
        type            empty;
    }
}


// ************************************************************************* //
