/*--------------------------------*- C++ -*----------------------------------*\
  =========                 |
  \\      /  F ield         | OpenFOAM: The Open Source CFD Toolbox
   \\    /   O peration     | Website:  https://openfoam.org
    \\  /    A nd           | Version:  10
     \\/     M anipulation  |
\*---------------------------------------------------------------------------*/
FoamFile
{
    format      ascii;
    class       surfaceScalarField;
    location    "7500";
    object      phi;
}
// * * * * * * * * * * * * * * * * * * * * * * * * * * * * * * * * * * * * * //

dimensions      [0 3 -1 0 0 0 0];

internalField   nonuniform List<scalar> 
696
(
6.38556e-05
2.76364e-17
6.38556e-05
1.44142e-19
6.38556e-05
2.41365e-19
-4.77217e-20
0.00019458
2.76137e-17
0.00019458
4.15022e-19
0.00019458
8.93699e-19
-2.11418e-19
0.000330207
2.68943e-17
0.000330207
7.16876e-19
0.000330207
1.77202e-18
-5.17953e-19
0.000470866
2.62155e-17
0.000470866
1.08761e-18
0.000470866
3.05711e-18
-7.32885e-19
0.000616689
2.44608e-17
0.000616689
1.50557e-18
0.000616689
4.84532e-18
-1.03955e-18
0.000767809
2.30126e-17
0.000767809
1.9237e-18
0.000767809
6.88953e-18
-1.29693e-18
0.000924363
2.03189e-17
0.000924363
2.2623e-18
0.000924363
9.58285e-18
-1.51445e-18
0.00108649
1.82242e-17
0.00108649
2.20534e-18
0.00108649
1.26118e-17
-1.90654e-18
0.00125433
1.46839e-17
0.00125433
1.82067e-18
0.00125433
1.62666e-17
-1.66348e-18
0.00142802
1.10402e-17
0.00142802
1.70531e-18
0.00142802
2.08721e-17
-1.70805e-18
0.00160772
5.65544e-18
0.00160772
9.29469e-19
0.00160772
2.64128e-17
-9.9341e-19
0.00179357
6.67349e-19
0.00179357
-1.79451e-19
0.00179357
3.21651e-17
-2.02586e-19
0.00198572
-6.41429e-18
0.00198572
-1.65771e-18
0.00198572
3.92043e-17
1.18353e-18
0.00218432
-1.24674e-17
0.00218432
-2.44065e-18
0.00218432
4.54395e-17
2.74273e-18
0.00238953
-1.97975e-17
0.00238953
-3.88406e-18
0.00238953
5.26902e-17
4.0852e-18
0.0026015
-2.71761e-17
0.0026015
-5.42551e-18
0.0026015
6.01036e-17
5.8489e-18
0.00282039
-3.5176e-17
0.00282039
-8.01309e-18
0.00282039
6.77009e-17
9.15798e-18
0.00304637
-4.32512e-17
0.00304637
-1.11881e-17
0.00304637
7.60975e-17
1.24168e-17
0.00327959
-5.17616e-17
0.00327959
-1.35326e-17
0.00327959
8.39221e-17
1.55146e-17
0.00352022
-5.90863e-17
0.00352022
-1.75349e-17
0.00352022
9.2515e-17
1.8753e-17
0.00376843
-6.74335e-17
0.00376843
-2.12463e-17
0.00376843
1.00483e-16
2.28116e-17
0.00402439
-7.60592e-17
0.00402439
-2.48701e-17
0.00402439
1.08645e-16
2.72503e-17
0.00428826
-8.47142e-17
0.00428826
-2.77775e-17
0.00428826
1.16525e-16
3.05075e-17
0.00456022
-9.28359e-17
0.00456022
-3.33689e-17
0.00456022
1.25644e-16
3.6082e-17
0.00484044
-1.00698e-16
0.00484044
-3.75913e-17
0.00484044
1.30931e-16
4.1926e-17
0.0051291
-1.07037e-16
0.0051291
-4.08663e-17
0.0051291
1.37919e-16
4.50944e-17
0.00542636
-1.1315e-16
0.00542636
-4.32268e-17
0.00542636
1.4318e-16
4.90024e-17
0.00573241
-1.1835e-16
0.00573241
-4.5124e-17
0.00573241
1.47828e-16
5.11322e-17
0.00604743
-1.23547e-16
0.00604743
-4.58914e-17
0.00604743
1.52752e-16
5.2082e-17
0.00637158
-1.27889e-16
0.00637158
-4.54885e-17
0.00637158
1.55992e-16
5.29642e-17
0.00670506
-1.31576e-16
0.00670506
-4.52219e-17
0.00670506
1.58872e-16
5.32103e-17
0.00704804
-1.33652e-16
0.00704804
-4.34186e-17
0.00704804
1.6136e-16
5.08836e-17
0.0074007
-1.35105e-16
0.0074007
-3.935e-17
0.0074007
1.61869e-16
4.75161e-17
0.00776321
-1.32157e-16
0.00776321
-3.55194e-17
0.00776321
1.59271e-16
4.36003e-17
0.00813577
-1.32332e-16
0.00813577
-2.96758e-17
0.00813577
1.59352e-16
3.77598e-17
0.00851853
-1.26436e-16
0.00851853
-2.28324e-17
0.00851853
1.54096e-16
2.9719e-17
0.00891169
-1.22205e-16
0.00891169
-1.57472e-17
0.00891169
1.53869e-16
1.85753e-17
0.00931542
-1.18047e-16
0.00931542
-6.82569e-18
0.00931542
1.47619e-16
1.21946e-17
0.00972989
-1.14592e-16
0.00972989
7.9496e-19
0.00972989
1.45559e-16
3.53478e-18
0.0101553
-1.11283e-16
0.0101553
7.47736e-18
0.0101553
1.42272e-16
-3.20728e-18
0.0105918
-1.06766e-16
0.0105918
1.85443e-17
0.0105918
1.36675e-16
-1.44296e-17
0.0110395
-9.99679e-17
0.0110395
2.38473e-17
0.0110395
1.3055e-16
-1.99547e-17
0.0114986
-9.53677e-17
0.0114986
2.84234e-17
0.0114986
1.25196e-16
-2.34536e-17
0.0119694
-8.87949e-17
0.0119694
3.31682e-17
0.0119694
1.19572e-16
-2.77562e-17
0.0124518
-8.6832e-17
0.0124518
3.35501e-17
0.0124518
1.15017e-16
-2.51351e-17
0.0129462
-8.05174e-17
0.0129462
3.29059e-17
0.0129462
1.10018e-16
-2.65906e-17
0.0134526
-7.91983e-17
0.0134526
3.02011e-17
0.0134526
1.07853e-16
-2.26947e-17
0.0139712
-7.27971e-17
0.0139712
2.81773e-17
0.0139712
1.00408e-16
-1.83494e-17
0.0145021
-6.58582e-17
0.0145021
2.07147e-17
0.0145021
9.2305e-17
-9.74052e-18
0.0150454
-6.03623e-17
0.0150454
1.24844e-17
0.0150454
8.79872e-17
-3.9953e-18
0.0156013
-5.93498e-17
0.0156013
4.6497e-18
0.0156013
8.57667e-17
5.32224e-18
0.0161699
-5.75493e-17
0.0161699
-1.59775e-18
0.0161699
8.07359e-17
1.76152e-17
0.0167514
-5.92456e-17
0.0167514
-7.57425e-18
0.0167514
8.09903e-17
2.18099e-17
0.0173456
-6.07956e-17
0.0173456
-9.14291e-18
0.0173456
8.24565e-17
2.62008e-17
0.0179529
-5.92572e-17
0.0179529
-1.58853e-17
0.0179529
7.72847e-17
3.42009e-17
0.0185732
-5.66427e-17
0.0185732
-1.371e-17
0.0185732
7.42723e-17
3.60075e-17
0.0192066
-4.47054e-17
0.0192066
-1.18263e-17
0.0192066
6.13304e-17
3.26532e-17
0.0198532
-3.98679e-17
0.0198532
-5.91116e-18
0.0198532
5.54343e-17
2.98653e-17
0.020513
-3.64246e-17
0.020513
8.76323e-19
0.020513
4.19261e-17
2.85954e-17
0.021186
-2.82283e-17
0.021186
7.01499e-18
0.021186
4.04016e-17
1.64422e-17
0.0218722
-2.29422e-17
0.0218722
1.23966e-17
0.0218722
4.29414e-17
5.03191e-18
0.0225716
-2.46316e-17
0.0225716
1.3972e-17
0.0225716
4.5927e-17
1.37854e-18
0.0232841
-1.71194e-17
0.0232841
2.08409e-17
0.0232841
3.80896e-17
-6.87313e-18
0.0240098
-1.6738e-17
0.0240098
2.16291e-17
0.0240098
3.65206e-17
-5.97895e-18
0.0247485
-1.37239e-17
0.0247485
2.20987e-17
0.0247485
3.5317e-17
-6.97652e-18
0.0255001
-7.38296e-18
0.0255001
1.36377e-17
0.0255001
2.81199e-17
3.39802e-18
0.0262645
1.6256e-19
0.0262645
3.61409e-18
0.0262645
2.20422e-17
1.15199e-17
0.0270416
6.02407e-18
0.0270416
1.36118e-18
0.0270416
1.31293e-17
1.40918e-17
0.0278311
1.51788e-17
0.0278311
8.39478e-19
0.0278311
5.33553e-18
1.0873e-17
0.0286329
2.22217e-17
0.0286329
-1.29746e-17
0.0286329
-2.68438e-18
2.19994e-17
0.0294467
4.08463e-17
0.0294467
-2.59833e-17
0.0294467
-1.30298e-17
2.85138e-17
0.0302723
4.15801e-17
0.0302723
-2.84891e-17
0.0302723
-2.04572e-17
3.64159e-17
0.0311092
4.69255e-17
0.0311092
-3.78656e-17
0.0311092
-2.72778e-17
4.50561e-17
0.0319572
4.37541e-17
0.0319572
-3.8149e-17
0.0319572
-3.11076e-17
3.88412e-17
0.0328159
4.2078e-17
0.0328159
-3.92252e-17
0.0328159
-3.22268e-17
4.86597e-17
0.0336848
3.88325e-17
0.0336848
-3.8858e-17
0.0336848
-2.93721e-17
4.61971e-17
0.0345635
3.39295e-17
0.0345635
-3.6051e-17
0.0345635
-2.78233e-17
4.42782e-17
0.0354513
3.40007e-17
0.0354513
-3.25098e-17
0.0354513
-2.84853e-17
3.97583e-17
0.0363478
3.86607e-17
0.0363478
-1.45404e-17
0.0363478
-3.99656e-17
3.65805e-17
0.0372522
5.58003e-17
0.0372522
-1.21034e-17
0.0372522
-5.33602e-17
2.64909e-17
0.0381639
7.58333e-17
0.0381639
-8.57405e-18
0.0381639
-6.87414e-17
2.41998e-17
0.039082
9.33347e-17
0.039082
-9.37155e-18
0.039082
-9.35396e-17
1.83157e-17
0.0400059
1.10415e-16
0.0400059
-1.3157e-17
0.0400059
-9.83246e-17
1.82762e-17
0.0409345
1.21406e-16
0.0409345
-1.33118e-17
0.0409345
-1.07616e-16
1.63872e-17
0.0418668
1.11939e-16
0.0418668
-1.27236e-17
0.0418668
-1.0485e-16
1.82136e-17
0.0428019
1.09252e-16
0.0428019
-3.61287e-18
0.0428019
-1.02999e-16
1.06374e-17
0.0437386
9.81786e-17
0.0437386
-5.63961e-18
0.0437386
-8.61381e-17
6.84306e-18
0.0446757
9.94241e-17
0.0446757
-5.33835e-18
0.0446757
-8.95344e-17
9.74161e-18
0.0456118
1.05327e-16
0.0456118
-5.97571e-18
0.0456118
-9.08296e-17
4.14834e-19
0.0465455
1.0455e-16
0.0465455
2.12897e-18
0.0465455
-8.43162e-17
-1.10638e-17
0.0474754
9.57114e-17
0.0474754
-1.61205e-18
0.0474754
-7.99849e-17
-1.19434e-17
0.0483997
8.07316e-17
0.0483997
5.86181e-18
0.0483997
-7.3406e-17
-1.14761e-17
0.0493168
7.07372e-17
0.0493168
1.95734e-18
0.0493168
-5.87283e-17
-1.20288e-17
0.0502248
5.69377e-17
0.0502248
-1.38756e-17
0.0502248
-3.98497e-17
-3.03157e-18
0.0511217
2.44913e-17
0.0511217
-1.72509e-17
0.0511217
-2.40423e-17
9.67957e-18
0.0520054
1.65042e-17
0.0520054
-1.96914e-17
0.0520054
-1.40144e-17
7.42912e-18
0.0528736
2.8823e-18
0.0528736
-1.75604e-17
0.0528736
-3.39785e-18
1.6433e-17
0.053724
-1.88395e-18
0.053724
-2.36305e-17
0.053724
5.13549e-18
2.83183e-17
0.0545539
-9.23349e-18
0.0545539
-1.29552e-17
0.0545539
1.19057e-17
4.68896e-18
0.0553606
0.0553606
0.0553606
)
;

boundaryField
{
    inlet
    {
        type            cyclic;
        value           nonuniform List<scalar> 
100
(
-0.0553606
-0.0545539
-0.053724
-0.0528736
-0.0520054
-0.0511217
-0.0502248
-0.0493168
-0.0483997
-0.0474754
-0.0465455
-0.0456118
-0.0446757
-0.0437386
-0.0428019
-0.0418668
-0.0409345
-0.0400059
-0.039082
-0.0381639
-0.0372522
-0.0363478
-0.0354513
-0.0345635
-0.0336848
-0.0328159
-0.0319572
-0.0311092
-0.0302723
-0.0294467
-0.0286329
-0.0278311
-0.0270416
-0.0262645
-0.0255001
-0.0247485
-0.0240098
-0.0232841
-0.0225716
-0.0218722
-0.021186
-0.020513
-0.0198532
-0.0192066
-0.0185732
-0.0179529
-0.0173456
-0.0167514
-0.0161699
-0.0156013
-0.0150454
-0.0145021
-0.0139712
-0.0134526
-0.0129462
-0.0124518
-0.0119694
-0.0114986
-0.0110395
-0.0105918
-0.0101553
-0.00972989
-0.00931542
-0.00891169
-0.00851853
-0.00813577
-0.00776321
-0.0074007
-0.00704804
-0.00670506
-0.00637158
-0.00604743
-0.00573241
-0.00542636
-0.0051291
-0.00484044
-0.00456022
-0.00428826
-0.00402439
-0.00376843
-0.00352022
-0.00327959
-0.00304637
-0.00282039
-0.0026015
-0.00238953
-0.00218432
-0.00198572
-0.00179357
-0.00160772
-0.00142802
-0.00125433
-0.00108649
-0.000924363
-0.000767809
-0.000616689
-0.000470866
-0.000330207
-0.00019458
-6.38556e-05
)
;
    }
    outlet
    {
        type            cyclic;
        value           nonuniform List<scalar> 
100
(
0.0553606
0.0545539
0.053724
0.0528736
0.0520054
0.0511217
0.0502248
0.0493168
0.0483997
0.0474754
0.0465455
0.0456118
0.0446757
0.0437386
0.0428019
0.0418668
0.0409345
0.0400059
0.039082
0.0381639
0.0372522
0.0363478
0.0354513
0.0345635
0.0336848
0.0328159
0.0319572
0.0311092
0.0302723
0.0294467
0.0286329
0.0278311
0.0270416
0.0262645
0.0255001
0.0247485
0.0240098
0.0232841
0.0225716
0.0218722
0.021186
0.020513
0.0198532
0.0192066
0.0185732
0.0179529
0.0173456
0.0167514
0.0161699
0.0156013
0.0150454
0.0145021
0.0139712
0.0134526
0.0129462
0.0124518
0.0119694
0.0114986
0.0110395
0.0105918
0.0101553
0.00972989
0.00931542
0.00891169
0.00851853
0.00813577
0.00776321
0.0074007
0.00704804
0.00670506
0.00637158
0.00604743
0.00573241
0.00542636
0.0051291
0.00484044
0.00456022
0.00428826
0.00402439
0.00376843
0.00352022
0.00327959
0.00304637
0.00282039
0.0026015
0.00238953
0.00218432
0.00198572
0.00179357
0.00160772
0.00142802
0.00125433
0.00108649
0.000924363
0.000767809
0.000616689
0.000470866
0.000330207
0.00019458
6.38556e-05
)
;
    }
    fixedWalls-bottom
    {
        type            calculated;
        value           uniform 0;
    }
    fixedWalls-top
    {
        type            symmetry;
        value           uniform 0;
    }
    frontAndBack
    {
        type            empty;
        value           nonuniform List<scalar> 0();
    }
}


// ************************************************************************* //
