/*--------------------------------*- C++ -*----------------------------------*\
  =========                 |
  \\      /  F ield         | OpenFOAM: The Open Source CFD Toolbox
   \\    /   O peration     | Website:  https://openfoam.org
    \\  /    A nd           | Version:  10
     \\/     M anipulation  |
\*---------------------------------------------------------------------------*/
FoamFile
{
    format      ascii;
    class       volVectorField;
    location    "7500";
    object      U;
}
// * * * * * * * * * * * * * * * * * * * * * * * * * * * * * * * * * * * * * //

dimensions      [0 1 -1 0 0 0 0];

internalField   nonuniform List<vector> 
400
(
(0.00692015 9.87127e-18 0)
(0.00692015 4.37043e-20 0)
(0.00692015 6.95077e-20 0)
(0.00692015 2.0474e-20 0)
(0.0207937 3.30831e-17 0)
(0.0207937 2.69443e-19 0)
(0.0207937 4.92558e-19 0)
(0.0207937 -1.41176e-19 0)
(0.0347968 2.83378e-17 0)
(0.0347968 5.50483e-19 0)
(0.0347968 1.248e-18 0)
(0.0347968 -3.48948e-19 0)
(0.0489293 2.74388e-17 0)
(0.0489293 9.11534e-19 0)
(0.0489293 2.32917e-18 0)
(0.0489293 -6.20559e-19 0)
(0.0631912 2.58609e-17 0)
(0.0631912 1.31919e-18 0)
(0.0631912 3.82791e-18 0)
(0.0631912 -8.83434e-19 0)
(0.0775823 2.40765e-17 0)
(0.0775823 1.71834e-18 0)
(0.0775823 5.77294e-18 0)
(0.0775823 -1.17151e-18 0)
(0.0921023 2.1873e-17 0)
(0.0921023 2.12891e-18 0)
(0.0921023 8.15549e-18 0)
(0.0921023 -1.44381e-18 0)
(0.106751 1.94447e-17 0)
(0.106751 2.31398e-18 0)
(0.106751 1.09594e-17 0)
(0.106751 -1.77796e-18 0)
(0.121528 1.66311e-17 0)
(0.121528 2.04633e-18 0)
(0.121528 1.43137e-17 0)
(0.121528 -1.85772e-18 0)
(0.136433 1.30589e-17 0)
(0.136433 1.80581e-18 0)
(0.136433 1.83935e-17 0)
(0.136433 -1.76348e-18 0)
(0.151465 8.47682e-18 0)
(0.151465 1.37292e-18 0)
(0.151465 2.3482e-17 0)
(0.151465 -1.38237e-18 0)
(0.166625 3.22436e-18 0)
(0.166625 4.54455e-19 0)
(0.166625 2.91833e-17 0)
(0.166625 -6.38574e-19 0)
(0.18191 -2.70561e-18 0)
(0.18191 -8.4138e-19 0)
(0.18191 3.55494e-17 0)
(0.18191 3.70681e-19 0)
(0.197321 -9.25061e-18 0)
(0.197321 -2.07527e-18 0)
(0.197321 4.22048e-17 0)
(0.197321 1.91029e-18 0)
(0.212857 -1.60761e-17 0)
(0.212857 -3.12383e-18 0)
(0.212857 4.90019e-17 0)
(0.212857 3.38874e-18 0)
(0.228517 -2.34423e-17 0)
(0.228517 -4.62803e-18 0)
(0.228517 5.63801e-17 0)
(0.228517 4.91592e-18 0)
(0.2443 -3.10638e-17 0)
(0.2443 -6.6788e-18 0)
(0.2443 6.38793e-17 0)
(0.2443 7.39429e-18 0)
(0.260204 -3.92414e-17 0)
(0.260204 -9.44793e-18 0)
(0.260204 7.18391e-17 0)
(0.260204 1.07377e-17 0)
(0.27623 -4.75685e-17 0)
(0.27623 -1.22289e-17 0)
(0.27623 8.00374e-17 0)
(0.27623 1.38759e-17 0)
(0.292375 -5.53905e-17 0)
(0.292375 -1.54748e-17 0)
(0.292375 8.82228e-17 0)
(0.292375 1.70635e-17 0)
(0.308638 -6.32926e-17 0)
(0.308638 -1.93779e-17 0)
(0.308638 9.65716e-17 0)
(0.308638 2.07359e-17 0)
(0.325018 -7.17871e-17 0)
(0.325018 -2.30098e-17 0)
(0.325018 1.04567e-16 0)
(0.325018 2.50038e-17 0)
(0.341513 -8.04414e-17 0)
(0.341513 -2.62111e-17 0)
(0.341513 1.12643e-16 0)
(0.341513 2.87679e-17 0)
(0.358121 -8.87857e-17 0)
(0.358121 -3.06133e-17 0)
(0.358121 1.2104e-16 0)
(0.358121 3.33816e-17 0)
(0.374841 -9.70891e-17 0)
(0.374841 -3.56032e-17 0)
(0.374841 1.2857e-16 0)
(0.374841 3.91675e-17 0)
(0.391671 -1.04015e-16 0)
(0.391671 -3.9487e-17 0)
(0.391671 1.34655e-16 0)
(0.391671 4.37109e-17 0)
(0.408609 -1.10345e-16 0)
(0.408609 -4.22245e-17 0)
(0.408609 1.40763e-16 0)
(0.408609 4.72673e-17 0)
(0.425653 -1.1591e-16 0)
(0.425653 -4.4315e-17 0)
(0.425653 1.45705e-16 0)
(0.425653 5.01773e-17 0)
(0.4428 -1.21025e-16 0)
(0.4428 -4.56315e-17 0)
(0.4428 1.50326e-16 0)
(0.4428 5.17587e-17 0)
(0.460048 -1.26056e-16 0)
(0.460048 -4.5948e-17 0)
(0.460048 1.54621e-16 0)
(0.460048 5.28405e-17 0)
(0.477394 -1.30031e-16 0)
(0.477394 -4.56641e-17 0)
(0.477394 1.57818e-16 0)
(0.477394 5.3266e-17 0)
(0.494836 -1.32954e-16 0)
(0.494836 -4.4755e-17 0)
(0.494836 1.60479e-16 0)
(0.494836 5.24409e-17 0)
(0.51237 -1.34728e-16 0)
(0.51237 -4.17064e-17 0)
(0.51237 1.619e-16 0)
(0.51237 4.95497e-17 0)
(0.529994 -1.34094e-16 0)
(0.529994 -3.78234e-17 0)
(0.529994 1.61064e-16 0)
(0.529994 4.59113e-17 0)
(0.547705 -1.32271e-16 0)
(0.547705 -3.2741e-17 0)
(0.547705 1.59342e-16 0)
(0.547705 4.08367e-17 0)
(0.565499 -1.29737e-16 0)
(0.565499 -2.6678e-17 0)
(0.565499 1.57001e-16 0)
(0.565499 3.42345e-17 0)
(0.583372 -1.24508e-16 0)
(0.583372 -1.92828e-17 0)
(0.583372 1.54127e-16 0)
(0.583372 2.41991e-17 0)
(0.601322 -1.20091e-16 0)
(0.601322 -1.11598e-17 0)
(0.601322 1.50836e-16 0)
(0.601322 1.51714e-17 0)
(0.619343 -1.16119e-16 0)
(0.619343 -2.88687e-18 0)
(0.619343 1.46509e-16 0)
(0.619343 7.67298e-18 0)
(0.637431 -1.13176e-16 0)
(0.637431 4.4725e-18 0)
(0.637431 1.44174e-16 0)
(0.637431 -1.14652e-19 0)
(0.655583 -1.09233e-16 0)
(0.655583 1.31196e-17 0)
(0.655583 1.39566e-16 0)
(0.655583 -8.74412e-18 0)
(0.673794 -1.03208e-16 0)
(0.673794 2.15116e-17 0)
(0.673794 1.33433e-16 0)
(0.673794 -1.74399e-17 0)
(0.692059 -9.74392e-17 0)
(0.692059 2.66673e-17 0)
(0.692059 1.27711e-16 0)
(0.692059 -2.23391e-17 0)
(0.710373 -9.18982e-17 0)
(0.710373 3.11607e-17 0)
(0.710373 1.22281e-16 0)
(0.710373 -2.60688e-17 0)
(0.728731 -8.79562e-17 0)
(0.728731 3.36874e-17 0)
(0.728731 1.17467e-16 0)
(0.728731 -2.67543e-17 0)
(0.747128 -8.36169e-17 0)
(0.747128 3.34017e-17 0)
(0.747128 1.1248e-16 0)
(0.747128 -2.60683e-17 0)
(0.765556 -8.02524e-17 0)
(0.765556 3.21036e-17 0)
(0.765556 1.09158e-16 0)
(0.765556 -2.49938e-17 0)
(0.784012 -7.56965e-17 0)
(0.784012 2.97925e-17 0)
(0.784012 1.03779e-16 0)
(0.784012 -2.10553e-17 0)
(0.802488 -6.902e-17 0)
(0.802488 2.43944e-17 0)
(0.802488 9.62956e-17 0)
(0.802488 -1.42049e-17 0)
(0.820978 -6.30199e-17 0)
(0.820978 1.65945e-17 0)
(0.820978 9.02538e-17 0)
(0.820978 -6.97625e-18 0)
(0.839475 -5.94879e-17 0)
(0.839475 8.63804e-18 0)
(0.839475 8.65427e-17 0)
(0.839475 5.42994e-19 0)
(0.857972 -5.82172e-17 0)
(0.857972 2.07494e-18 0)
(0.857972 8.23708e-17 0)
(0.857972 1.14834e-17 0)
(0.876461 -5.83054e-17 0)
(0.876461 -4.71966e-18 0)
(0.876461 8.0835e-17 0)
(0.876461 1.97682e-17 0)
(0.894936 -6.01392e-17 0)
(0.894936 -9.04297e-18 0)
(0.894936 8.23809e-17 0)
(0.894936 2.41003e-17 0)
(0.913387 -6.07815e-17 0)
(0.913387 -1.32414e-17 0)
(0.913387 8.06322e-17 0)
(0.913387 3.09306e-17 0)
(0.931807 -5.81955e-17 0)
(0.931807 -1.52257e-17 0)
(0.931807 7.59871e-17 0)
(0.931807 3.55684e-17 0)
(0.950186 -5.09721e-17 0)
(0.950186 -1.3289e-17 0)
(0.950186 6.80837e-17 0)
(0.950186 3.49182e-17 0)
(0.968516 -4.24022e-17 0)
(0.968516 -9.54624e-18 0)
(0.968516 5.84704e-17 0)
(0.968516 3.19713e-17 0)
(0.986787 -3.81785e-17 0)
(0.986787 -2.70922e-18 0)
(0.986787 4.86691e-17 0)
(0.986787 2.94386e-17 0)
(1.00499 -3.19875e-17 0)
(1.00499 3.60861e-18 0)
(1.00499 4.09155e-17 0)
(1.00499 2.27226e-17 0)
(1.02311 -2.57196e-17 0)
(1.02311 9.91915e-18 0)
(1.02311 4.14654e-17 0)
(1.02311 1.08819e-17 0)
(1.04115 -2.3673e-17 0)
(1.04115 1.37128e-17 0)
(1.04115 4.39734e-17 0)
(1.04115 2.98032e-18 0)
(1.05908 -2.0395e-17 0)
(1.05908 1.76047e-17 0)
(1.05908 4.19481e-17 0)
(1.05908 -3.39912e-18 0)
(1.0769 -1.77394e-17 0)
(1.0769 2.17288e-17 0)
(1.0769 3.74528e-17 0)
(1.0769 -6.37183e-18 0)
(1.0946 -1.46851e-17 0)
(1.0946 2.33555e-17 0)
(1.0946 3.50349e-17 0)
(1.0946 -7.74644e-18 0)
(1.11216 -9.89032e-18 0)
(1.11216 1.74931e-17 0)
(1.11216 3.20901e-17 0)
(1.11216 -2.58774e-18 0)
(1.12957 -3.80523e-18 0)
(1.12957 8.83321e-18 0)
(1.12957 2.47377e-17 0)
(1.12957 7.75428e-18 0)
(1.14682 1.9401e-18 0)
(1.14682 3.33051e-18 0)
(1.14682 1.78298e-17 0)
(1.14682 1.28799e-17 0)
(1.16389 1.00374e-17 0)
(1.16389 1.25759e-18 0)
(1.16389 1.02566e-17 0)
(1.16389 1.18858e-17 0)
(1.18077 1.85939e-17 0)
(1.18077 -6.64025e-18 0)
(1.18077 1.64501e-18 0)
(1.18077 1.68705e-17 0)
(1.19744 3.14802e-17 0)
(1.19744 -2.03181e-17 0)
(1.19744 -7.77119e-18 0)
(1.19744 2.60198e-17 0)
(1.21389 4.25945e-17 0)
(1.21389 -2.70282e-17 0)
(1.21389 -1.70888e-17 0)
(1.21389 3.133e-17 0)
(1.23011 4.55153e-17 0)
(1.23011 -3.35718e-17 0)
(1.23011 -2.46902e-17 0)
(1.23011 4.07634e-17 0)
(1.24607 4.55242e-17 0)
(1.24607 -3.82398e-17 0)
(1.24607 -2.9374e-17 0)
(1.24607 4.2358e-17 0)
(1.26176 4.34026e-17 0)
(1.26176 -3.90598e-17 0)
(1.26176 -3.24979e-17 0)
(1.26176 4.45303e-17 0)
(1.27716 3.93406e-17 0)
(1.27716 -3.89846e-17 0)
(1.27716 -3.02083e-17 0)
(1.27716 4.7759e-17 0)
(1.29225 3.5979e-17 0)
(1.29225 -3.81198e-17 0)
(1.29225 -2.89297e-17 0)
(1.29225 4.65097e-17 0)
(1.30701 3.2663e-17 0)
(1.30701 -3.45774e-17 0)
(1.30701 -2.7118e-17 0)
(1.30701 4.25243e-17 0)
(1.32143 3.61581e-17 0)
(1.32143 -2.35405e-17 0)
(1.32143 -3.3686e-17 0)
(1.32143 3.77309e-17 0)
(1.33548 4.74125e-17 0)
(1.33548 -1.27917e-17 0)
(1.33548 -4.74117e-17 0)
(1.33548 3.17627e-17 0)
(1.34914 6.51754e-17 0)
(1.34914 -1.02238e-17 0)
(1.34914 -6.01702e-17 0)
(1.34914 2.51306e-17 0)
(1.36238 8.50391e-17 0)
(1.36238 -9.20231e-18 0)
(1.36238 -8.05678e-17 0)
(1.36238 2.06128e-17 0)
(1.3752 1.02661e-16 0)
(1.3752 -1.04027e-17 0)
(1.3752 -9.67216e-17 0)
(1.3752 1.7534e-17 0)
(1.38755 1.17042e-16 0)
(1.38755 -1.33047e-17 0)
(1.38755 -1.0486e-16 0)
(1.38755 1.81406e-17 0)
(1.39942 1.1787e-16 0)
(1.39942 -1.30549e-17 0)
(1.39942 -1.07237e-16 0)
(1.39942 1.71761e-17 0)
(1.41078 1.10852e-16 0)
(1.41078 -9.1265e-18 0)
(1.41078 -1.03645e-16 0)
(1.41078 1.48889e-17 0)
(1.42161 1.03556e-16 0)
(1.42161 -4.26619e-18 0)
(1.42161 -9.42928e-17 0)
(1.42161 8.28401e-18 0)
(1.43187 9.9318e-17 0)
(1.43187 -6.81727e-18 0)
(1.43187 -8.77385e-17 0)
(1.43187 8.99885e-18 0)
(1.44155 1.01535e-16 0)
(1.44155 -6.27851e-18 0)
(1.44155 -8.94582e-17 0)
(1.44155 5.74079e-18 0)
(1.4506 1.05844e-16 0)
(1.4506 -6.6723e-19 0)
(1.4506 -8.90072e-17 0)
(1.4506 -6.10006e-18 0)
(1.45901 1.01533e-16 0)
(1.45901 7.24733e-19 0)
(1.45901 -8.30447e-17 0)
(1.45901 -1.24321e-17 0)
(1.46673 8.87362e-17 0)
(1.46673 3.09028e-18 0)
(1.46673 -7.73673e-17 0)
(1.46673 -1.26161e-17 0)
(1.47374 7.54774e-17 0)
(1.47374 6.05888e-18 0)
(1.47374 -6.64109e-17 0)
(1.47374 -1.32959e-17 0)
(1.48001 6.37551e-17 0)
(1.48001 -5.17544e-18 0)
(1.48001 -4.94761e-17 0)
(1.48001 -7.92499e-18 0)
(1.48549 4.01945e-17 0)
(1.48549 -1.5206e-17 0)
(1.48549 -3.08937e-17 0)
(1.48549 2.31053e-18 0)
(1.49015 2.05387e-17 0)
(1.49015 -1.88167e-17 0)
(1.49015 -1.93677e-17 0)
(1.49015 8.95864e-18 0)
(1.49396 8.28469e-18 0)
(1.49396 -1.97047e-17 0)
(1.49396 -8.07691e-18 0)
(1.49396 1.33686e-17 0)
(1.49688 2.34562e-19 0)
(1.49688 -2.13893e-17 0)
(1.49688 7.29283e-19 0)
(1.49688 2.29926e-17 0)
(1.49887 -9.26055e-18 0)
(1.49887 -2.37418e-17 0)
(1.49887 1.50623e-17 0)
(1.49887 1.85523e-17 0)
(1.49988 -1.64631e-18 0)
(1.49988 -3.78141e-18 0)
(1.49988 9.05435e-19 0)
(1.49988 2.16951e-18 0)
)
;

boundaryField
{
    inlet
    {
        type            cyclic;
    }
    outlet
    {
        type            cyclic;
    }
    fixedWalls-bottom
    {
        type            noSlip;
    }
    fixedWalls-top
    {
        type            symmetry;
    }
    frontAndBack
    {
        type            empty;
    }
}


// ************************************************************************* //
