/*--------------------------------*- C++ -*----------------------------------*\
  =========                 |
  \\      /  F ield         | OpenFOAM: The Open Source CFD Toolbox
   \\    /   O peration     | Website:  https://openfoam.org
    \\  /    A nd           | Version:  10
     \\/     M anipulation  |
\*---------------------------------------------------------------------------*/
FoamFile
{
    format      ascii;
    class       volScalarField;
    location    "2500";
    object      k;
}
// * * * * * * * * * * * * * * * * * * * * * * * * * * * * * * * * * * * * * //

dimensions      [0 2 -2 0 0 0 0];

internalField   nonuniform List<scalar> 
400
(
1.27384e-09
1.2725e-09
1.27194e-09
1.27264e-09
3.82166e-08
3.81763e-08
3.81596e-08
3.81804e-08
2.70658e-07
2.70372e-07
2.70254e-07
2.70401e-07
9.84053e-07
9.8301e-07
9.82581e-07
9.83116e-07
2.54636e-06
2.54365e-06
2.54254e-06
2.54393e-06
5.39299e-06
5.38726e-06
5.38491e-06
5.38784e-06
1.00234e-05
1.00128e-05
1.00084e-05
1.00138e-05
1.70014e-05
1.69834e-05
1.69759e-05
1.69851e-05
2.69567e-05
2.69281e-05
2.69163e-05
2.69308e-05
4.05868e-05
4.05438e-05
4.0526e-05
4.05476e-05
5.8657e-05
5.8595e-05
5.85692e-05
5.86001e-05
8.19969e-05
8.19105e-05
8.18743e-05
8.19169e-05
0.00011149
0.000111373
0.000111324
0.000111381
0.000148055
0.000147901
0.000147835
0.000147909
0.000192615
0.000192416
0.00019233
0.000192424
0.000246055
0.000245804
0.000245693
0.000245812
0.000309175
0.000308865
0.000308725
0.00030887
0.000382631
0.000382256
0.000382083
0.000382257
0.000466884
0.000466441
0.000466228
0.000466434
0.000562155
0.000561641
0.000561384
0.000561626
0.000668391
0.000667811
0.000667505
0.000667783
0.000785255
0.000784613
0.000784254
0.00078457
0.000912118
0.000911426
0.000911009
0.000911364
0.00104807
0.00104734
0.00104686
0.00104726
0.0011919
0.00119116
0.00119062
0.00119105
0.00134211
0.00134137
0.00134077
0.00134124
0.0014968
0.0014961
0.00149544
0.00149593
0.00165379
0.00165315
0.00165243
0.00165295
0.00181137
0.0018108
0.00181004
0.00181057
0.00196841
0.00196792
0.00196712
0.00196766
0.00212371
0.00212331
0.00212248
0.00212302
0.00227616
0.00227585
0.00227499
0.00227554
0.00242472
0.0024245
0.00242363
0.00242417
0.00256842
0.00256829
0.00256742
0.00256795
0.00270637
0.00270634
0.00270547
0.00270597
0.00283954
0.00283957
0.00283867
0.0028392
0.00296911
0.00296918
0.00296825
0.00296882
0.00309591
0.00309601
0.00309503
0.00309567
0.00322052
0.00322062
0.0032196
0.00322032
0.00334328
0.00334338
0.00334231
0.00334312
0.00346439
0.00346448
0.00346337
0.00346427
0.00358392
0.003584
0.00358283
0.00358383
0.00370186
0.0037019
0.00370069
0.00370179
0.0038181
0.00381812
0.00381685
0.00381806
0.00393252
0.0039325
0.00393118
0.0039325
0.00404493
0.00404487
0.00404347
0.00404492
0.00415512
0.004155
0.00415353
0.00415512
0.00426282
0.00426265
0.00426109
0.00426285
0.00436778
0.00436753
0.00436587
0.00436783
0.00446969
0.00446936
0.00446759
0.00446977
0.00456821
0.00456779
0.0045659
0.00456834
0.00466301
0.00466248
0.00466047
0.00466319
0.00475369
0.00475305
0.00475091
0.00475394
0.00483985
0.0048391
0.00483681
0.00484018
0.00492106
0.00492019
0.00491776
0.00492149
0.00499685
0.00499587
0.00499329
0.0049974
0.00506672
0.00506563
0.0050629
0.00506742
0.00513015
0.00512896
0.00512608
0.00513102
0.00518657
0.00518529
0.00518227
0.00518763
0.00523539
0.00523402
0.00523087
0.00523667
0.00527598
0.00527452
0.00527125
0.00527749
0.00530765
0.00530613
0.00530275
0.00530942
0.0053297
0.00532813
0.00532466
0.00533175
0.00534139
0.00533978
0.00533624
0.00534372
0.00534194
0.00534031
0.00533673
0.00534455
0.00533054
0.00532891
0.0053253
0.00533341
0.00530637
0.00530474
0.00530113
0.00530945
0.00526856
0.00526697
0.00526336
0.00527181
0.00521626
0.00521472
0.00521114
0.00521959
0.0051486
0.00514713
0.00514359
0.0051519
0.0050647
0.00506334
0.00505984
0.00506783
0.00496372
0.00496248
0.00495901
0.00496648
0.00484472
0.00484364
0.00484015
0.00484686
0.00470669
0.00470578
0.00470221
0.00470788
0.00454823
0.00454753
0.00454371
0.0045483
0.00436953
0.00436902
0.00436495
0.00436871
0.00417143
0.00417105
0.0041667
0.00416984
0.00395497
0.00395468
0.00395005
0.00395274
0.00372147
0.00372126
0.00371634
0.00371871
0.00347257
0.00347241
0.00346724
0.00346935
0.00320996
0.00320979
0.00320441
0.00320631
0.00293558
0.00293538
0.00292983
0.00293156
0.00265061
0.0026503
0.00264453
0.00264624
0.00236051
0.00236016
0.00235443
0.00235599
0.00207488
0.00207464
0.00206934
0.00207053
0.00180229
0.00180224
0.00179761
0.00179835
0.00154886
0.00154901
0.00154515
0.00154547
0.00131868
0.00131897
0.00131589
0.00131585
0.00111376
0.00111414
0.00111172
0.00111146
0.000934404
0.000934802
0.000932928
0.000932557
0.000779711
0.000780095
0.00077863
0.000778256
0.000648106
0.000648449
0.000647285
0.000646974
0.000537699
0.000537986
0.000537043
0.00053683
0.000446507
0.000446734
0.000445955
0.000445851
0.00037257
0.000372738
0.000372084
0.000372081
0.00031404
0.000314151
0.000313592
0.00031367
0.000269256
0.00026932
0.000268837
0.000268974
0.000236832
0.000236863
0.000236437
0.000236616
0.000215724
0.000215733
0.000215347
0.000215551
0.000205272
0.000205271
0.000204905
0.000205121
)
;

boundaryField
{
    inlet
    {
        type            cyclic;
    }
    outlet
    {
        type            cyclic;
    }
    fixedWalls-bottom
    {
        type            kqRWallFunction;
        value           nonuniform List<scalar> 4(1.27384e-09 1.2725e-09 1.27194e-09 1.27264e-09);
    }
    fixedWalls-top
    {
        type            symmetry;
    }
    frontAndBack
    {
        type            empty;
    }
}


// ************************************************************************* //
