/*--------------------------------*- C++ -*----------------------------------*\
  =========                 |
  \\      /  F ield         | OpenFOAM: The Open Source CFD Toolbox
   \\    /   O peration     | Website:  https://openfoam.org
    \\  /    A nd           | Version:  10
     \\/     M anipulation  |
\*---------------------------------------------------------------------------*/
FoamFile
{
    format      ascii;
    class       volScalarField;
    location    "2500";
    object      nut;
}
// * * * * * * * * * * * * * * * * * * * * * * * * * * * * * * * * * * * * * //

dimensions      [0 2 -1 0 0 0 0];

internalField   nonuniform List<scalar> 
400
(
6.66171e-15
6.65468e-15
6.65178e-15
6.6554e-15
1.1683e-12
1.16707e-12
1.16656e-12
1.1672e-12
2.4597e-11
2.45711e-11
2.45604e-11
2.45738e-11
1.90393e-10
1.90192e-10
1.90109e-10
1.90213e-10
8.71114e-10
8.70191e-10
8.69812e-10
8.70289e-10
2.90859e-09
2.9055e-09
2.90424e-09
2.90584e-09
7.89236e-09
7.88391e-09
7.8805e-09
7.88489e-09
1.85062e-08
1.84862e-08
1.84783e-08
1.84887e-08
3.89583e-08
3.8916e-08
3.88994e-08
3.89218e-08
7.55348e-08
7.54521e-08
7.54203e-08
7.54645e-08
1.3736e-07
1.37208e-07
1.37151e-07
1.37233e-07
2.37524e-07
2.37256e-07
2.37158e-07
2.37305e-07
3.94833e-07
3.94373e-07
3.94213e-07
3.94465e-07
6.36555e-07
6.35778e-07
6.35525e-07
6.35944e-07
1.00272e-06
1.00141e-06
1.00102e-06
1.0017e-06
1.55277e-06
1.55058e-06
1.54998e-06
1.55106e-06
2.37588e-06
2.37219e-06
2.37127e-06
2.37296e-06
3.60689e-06
3.60059e-06
3.59921e-06
3.60183e-06
5.45105e-06
5.44023e-06
5.43814e-06
5.44225e-06
8.22274e-06
8.20402e-06
8.20083e-06
8.20735e-06
1.2406e-05
1.23735e-05
1.23686e-05
1.23791e-05
1.87495e-05
1.86934e-05
1.86856e-05
1.87029e-05
2.84157e-05
2.83188e-05
2.83062e-05
2.83351e-05
4.32101e-05
4.30442e-05
4.30222e-05
4.30727e-05
6.59298e-05
6.56487e-05
6.56121e-05
6.56997e-05
0.00010086
0.000100398
0.00010033
0.000100487
0.000154414
0.000153683
0.000153541
0.000153841
0.000197905
0.000197826
0.00019774
0.000197803
0.000219026
0.000218957
0.000218866
0.000218929
0.000240442
0.000240383
0.000240285
0.000240351
0.000262112
0.000262063
0.000261961
0.000262028
0.000283909
0.000283871
0.000283765
0.000283832
0.00030571
0.000305683
0.000305575
0.000305642
0.000327395
0.000327381
0.00032727
0.000327336
0.000348848
0.000348846
0.000348735
0.000348799
0.000370196
0.000370203
0.000370087
0.000370154
0.0003916
0.000391613
0.000391491
0.000391565
0.000413186
0.000413202
0.000413074
0.000413157
0.000435047
0.000435064
0.000434928
0.000435023
0.000457251
0.000457268
0.000457125
0.000457232
0.000479849
0.000479865
0.000479713
0.000479835
0.000502876
0.000502889
0.000502729
0.000502866
0.000526356
0.000526366
0.000526197
0.00052635
0.000550306
0.000550311
0.000550132
0.000550302
0.000574733
0.000574734
0.000574544
0.000574733
0.000599645
0.000599638
0.000599435
0.000599645
0.000625038
0.000625023
0.000624805
0.00062504
0.000650906
0.000650882
0.000650647
0.000650911
0.00067724
0.000677204
0.00067695
0.000677248
0.000704025
0.000703975
0.0007037
0.000704038
0.000731241
0.000731175
0.000730876
0.000731261
0.000758864
0.000758779
0.000758454
0.000758892
0.000786861
0.000786756
0.000786402
0.000786899
0.000815194
0.000815068
0.000814683
0.000815245
0.000843817
0.000843668
0.00084325
0.000843885
0.000872675
0.000872502
0.000872049
0.000872764
0.000901702
0.000901505
0.000901016
0.000901818
0.000930821
0.000930601
0.000930073
0.000930969
0.000959942
0.000959698
0.000959133
0.000960128
0.00098896
0.000988693
0.000988089
0.00098919
0.00101775
0.00101746
0.00101682
0.00101803
0.00104618
0.00104587
0.00104519
0.00104652
0.00107407
0.00107374
0.00107303
0.00107447
0.00110125
0.0011009
0.00110016
0.00110172
0.00112749
0.00112713
0.00112636
0.00112804
0.00115256
0.00115218
0.00115139
0.00115318
0.00117618
0.00117579
0.00117498
0.00117687
0.00119803
0.00119764
0.00119682
0.00119878
0.00121778
0.00121739
0.00121656
0.00121858
0.00123503
0.00123465
0.00123381
0.00123585
0.00124934
0.00124898
0.00124814
0.00125015
0.00126024
0.0012599
0.00125905
0.00126098
0.00126716
0.00126685
0.00126599
0.00126776
0.00126942
0.00126917
0.00126826
0.00126979
0.00126619
0.001266
0.00126501
0.00126625
0.00125697
0.00125685
0.00125576
0.00125678
0.00124143
0.00124136
0.00124017
0.00124101
0.00121926
0.00121923
0.00121792
0.00121863
0.00119017
0.0011902
0.00118875
0.00118934
0.00115395
0.00115402
0.00115244
0.00115293
0.00111026
0.00111037
0.00110865
0.00110904
0.00105459
0.00105453
0.0010523
0.00105296
0.000764942
0.000755047
0.000733603
0.000753311
0.00045901
0.000454098
0.0004435
0.000452387
0.000295767
0.000293367
0.000287829
0.000291953
0.000199141
0.000198085
0.000195193
0.000197015
0.000138677
0.000138427
0.000136921
0.000137621
0.000100322
0.000100178
9.94508e-05
9.96386e-05
7.49918e-05
7.49065e-05
7.45248e-05
7.45429e-05
5.73715e-05
5.73182e-05
5.7069e-05
5.70663e-05
4.45199e-05
4.44826e-05
4.42986e-05
4.43142e-05
3.4843e-05
3.48124e-05
3.46605e-05
3.46961e-05
2.74682e-05
2.74419e-05
2.73127e-05
2.73665e-05
2.18788e-05
2.18573e-05
2.17491e-05
2.18168e-05
1.76916e-05
1.76738e-05
1.75835e-05
1.76598e-05
1.46049e-05
1.45894e-05
1.45141e-05
1.45942e-05
1.2391e-05
1.23767e-05
1.23136e-05
1.23944e-05
1.08876e-05
1.08738e-05
1.08203e-05
1.09e-05
9.98738e-06
9.97376e-06
9.92683e-06
1.00052e-05
9.62738e-06
9.61346e-06
9.5698e-06
9.64744e-06
)
;

boundaryField
{
    inlet
    {
        type            cyclic;
    }
    outlet
    {
        type            cyclic;
    }
    fixedWalls-bottom
    {
        type            nutkWallFunction;
        Cmu             0.09;
        kappa           0.41;
        E               9.8;
        value           uniform 0;
    }
    fixedWalls-top
    {
        type            symmetry;
    }
    frontAndBack
    {
        type            empty;
    }
}


// ************************************************************************* //
