/*--------------------------------*- C++ -*----------------------------------*\
  =========                 |
  \\      /  F ield         | OpenFOAM: The Open Source CFD Toolbox
   \\    /   O peration     | Website:  https://openfoam.org
    \\  /    A nd           | Version:  10
     \\/     M anipulation  |
\*---------------------------------------------------------------------------*/
FoamFile
{
    format      ascii;
    class       volSymmTensorField;
    location    "2500";
    object      R;
}
// * * * * * * * * * * * * * * * * * * * * * * * * * * * * * * * * * * * * * //

dimensions      [0 2 -2 0 0 0 0];

internalField   nonuniform List<symmTensor> 
400
(
(8.49229e-10 -2.07192e-14 -0 8.49229e-10 -0 8.49229e-10)
(8.48333e-10 -2.06974e-14 -0 8.48333e-10 -0 8.48333e-10)
(8.47962e-10 -2.06884e-14 -0 8.47962e-10 -0 8.47962e-10)
(8.48425e-10 -2.06995e-14 -0 8.48425e-10 -0 8.48425e-10)
(2.54777e-08 -3.6168e-12 -0 2.54777e-08 -0 2.54777e-08)
(2.54508e-08 -3.613e-12 -0 2.54508e-08 -0 2.54508e-08)
(2.54397e-08 -3.61143e-12 -0 2.54397e-08 -0 2.54397e-08)
(2.54536e-08 -3.61338e-12 -0 2.54536e-08 -0 2.54536e-08)
(1.80438e-07 -7.57866e-11 -0 1.80438e-07 -0 1.80438e-07)
(1.80248e-07 -7.57069e-11 -0 1.80248e-07 -0 1.80248e-07)
(1.80169e-07 -7.56741e-11 -0 1.80169e-07 -0 1.80169e-07)
(1.80267e-07 -7.5715e-11 -0 1.80267e-07 -0 1.80267e-07)
(6.56035e-07 -5.8379e-10 -0 6.56035e-07 -0 6.56035e-07)
(6.5534e-07 -5.83175e-10 -0 6.5534e-07 -0 6.5534e-07)
(6.55054e-07 -5.82921e-10 -0 6.55054e-07 -0 6.55054e-07)
(6.55411e-07 -5.83237e-10 -0 6.55411e-07 -0 6.55411e-07)
(1.69757e-06 -2.65786e-09 -0 1.69757e-06 -0 1.69757e-06)
(1.69577e-06 -2.65504e-09 -0 1.69577e-06 -0 1.69577e-06)
(1.69503e-06 -2.65389e-09 -0 1.69503e-06 -0 1.69503e-06)
(1.69595e-06 -2.65534e-09 -0 1.69595e-06 -0 1.69595e-06)
(3.59533e-06 -8.82967e-09 -0 3.59533e-06 -0 3.59533e-06)
(3.59151e-06 -8.82027e-09 -0 3.59151e-06 -0 3.59151e-06)
(3.58994e-06 -8.81645e-09 -0 3.58994e-06 -0 3.58994e-06)
(3.59189e-06 -8.82128e-09 -0 3.59189e-06 -0 3.59189e-06)
(6.68228e-06 -2.38356e-08 -0 6.68228e-06 -0 6.68228e-06)
(6.67518e-06 -2.38101e-08 -0 6.67518e-06 -0 6.67518e-06)
(6.67226e-06 -2.37998e-08 -0 6.67226e-06 -0 6.67226e-06)
(6.67588e-06 -2.38129e-08 -0 6.67588e-06 -0 6.67588e-06)
(1.13343e-05 -5.5596e-08 -0 1.13343e-05 -0 1.13343e-05)
(1.13222e-05 -5.55361e-08 -0 1.13222e-05 -0 1.13222e-05)
(1.13173e-05 -5.55122e-08 -0 1.13173e-05 -0 1.13173e-05)
(1.13234e-05 -5.55433e-08 -0 1.13234e-05 -0 1.13234e-05)
(1.79711e-05 -1.16409e-07 -0 1.79711e-05 -0 1.79711e-05)
(1.79521e-05 -1.16283e-07 -0 1.79521e-05 -0 1.79521e-05)
(1.79442e-05 -1.16233e-07 -0 1.79442e-05 -0 1.79442e-05)
(1.79538e-05 -1.16299e-07 -0 1.79538e-05 -0 1.79538e-05)
(2.70579e-05 -2.24462e-07 -0 2.70579e-05 -0 2.70579e-05)
(2.70292e-05 -2.24216e-07 -0 2.70292e-05 -0 2.70292e-05)
(2.70174e-05 -2.24121e-07 -0 2.70174e-05 -0 2.70174e-05)
(2.70317e-05 -2.24252e-07 -0 2.70317e-05 -0 2.70317e-05)
(3.91047e-05 -4.05893e-07 -0 3.91047e-05 -0 3.91047e-05)
(3.90634e-05 -4.05443e-07 -0 3.90634e-05 -0 3.90634e-05)
(3.90462e-05 -4.05274e-07 -0 3.90462e-05 -0 3.90462e-05)
(3.90667e-05 -4.05517e-07 -0 3.90667e-05 -0 3.90667e-05)
(5.46646e-05 -6.9785e-07 -0 5.46646e-05 -0 5.46646e-05)
(5.4607e-05 -6.97061e-07 -0 5.4607e-05 -0 5.4607e-05)
(5.45829e-05 -6.96774e-07 -0 5.45829e-05 -0 5.45829e-05)
(5.46113e-05 -6.97204e-07 -0 5.46113e-05 -0 5.46113e-05)
(7.43267e-05 -1.15323e-06 -0 7.43267e-05 -0 7.43267e-05)
(7.42488e-05 -1.15188e-06 -0 7.42488e-05 -0 7.42488e-05)
(7.42158e-05 -1.15141e-06 -0 7.42158e-05 -0 7.42158e-05)
(7.42539e-05 -1.15215e-06 -0 7.42539e-05 -0 7.42539e-05)
(9.87033e-05 -1.8481e-06 -0 9.87033e-05 -0 9.87033e-05)
(9.86005e-05 -1.84584e-06 -0 9.86005e-05 -0 9.86005e-05)
(9.85565e-05 -1.8451e-06 -0 9.85565e-05 -0 9.85565e-05)
(9.86061e-05 -1.84632e-06 -0 9.86061e-05 -0 9.86061e-05)
(0.00012841 -2.89332e-06 -0 0.00012841 -0 0.00012841)
(0.000128277 -2.88955e-06 -0 0.000128277 -0 0.000128277)
(0.00012822 -2.88842e-06 -0 0.00012822 -0 0.00012822)
(0.000128283 -2.89037e-06 -0 0.000128283 -0 0.000128283)
(0.000164037 -4.45235e-06 -0 0.000164037 -0 0.000164037)
(0.000163869 -4.44607e-06 -0 0.000163869 -0 0.000163869)
(0.000163796 -4.44433e-06 -0 0.000163796 -0 0.000163796)
(0.000163874 -4.44741e-06 -0 0.000163874 -0 0.000163874)
(0.000206117 -6.76867e-06 -0 0.000206117 -0 0.000206117)
(0.00020591 -6.75811e-06 -0 0.00020591 -0 0.00020591)
(0.000205817 -6.7555e-06 -0 0.000205817 -0 0.000205817)
(0.000205913 -6.7603e-06 -0 0.000205913 -0 0.000205913)
(0.000255087 -1.02078e-05 -0 0.000255087 -0 0.000255087)
(0.000254838 -1.01899e-05 -0 0.000254838 -0 0.000254838)
(0.000254722 -1.0186e-05 -0 0.000254722 -0 0.000254722)
(0.000254838 -1.01934e-05 -0 0.000254838 -0 0.000254838)
(0.000311256 -1.5322e-05 -0 0.000311256 -0 0.000311256)
(0.00031096 -1.52916e-05 -0 0.00031096 -0 0.00031096)
(0.000310819 -1.52856e-05 -0 0.000310819 -0 0.000310819)
(0.000310956 -1.52972e-05 -0 0.000310956 -0 0.000310956)
(0.00037477 -2.29505e-05 -0 0.00037477 -0 0.00037477)
(0.000374428 -2.28982e-05 -0 0.000374428 -0 0.000374428)
(0.000374256 -2.28892e-05 -0 0.000374256 -0 0.000374256)
(0.000374417 -2.29075e-05 -0 0.000374417 -0 0.000374417)
(0.000445594 -3.43742e-05 -0 0.000445594 -0 0.000445594)
(0.000445207 -3.42842e-05 -0 0.000445207 -0 0.000445207)
(0.000445003 -3.42705e-05 -0 0.000445003 -0 0.000445003)
(0.000445188 -3.42997e-05 -0 0.000445188 -0 0.000445188)
(0.000523503 -5.15554e-05 -0 0.000523504 -0 0.000523504)
(0.000523076 -5.1401e-05 -0 0.000523076 -0 0.000523076)
(0.000522836 -5.13795e-05 -0 0.000522836 -0 0.000522836)
(0.000523047 -5.14269e-05 -0 0.000523047 -0 0.000523047)
(0.000608079 -7.75062e-05 -0 0.000608079 -0 0.000608079)
(0.000607617 -7.72423e-05 -0 0.000607617 -0 0.000607617)
(0.000607339 -7.72075e-05 -0 0.000607339 -0 0.000607339)
(0.000607576 -7.72865e-05 -0 0.000607576 -0 0.000607576)
(0.000698711 -0.000116844 -0 0.000698711 -0 0.000698711)
(0.000698226 -0.000116396 -0 0.000698226 -0 0.000698226)
(0.000697908 -0.000116337 -0 0.000697908 -0 0.000697908)
(0.00069817 -0.000116473 -0 0.00069817 -0 0.00069817)
(0.000794601 -0.000176601 -0 0.000794601 -0 0.000794601)
(0.000794104 -0.000175851 -0 0.000794104 -0 0.000794104)
(0.000793746 -0.000175753 -0 0.000793745 -0 0.000793745)
(0.000794033 -0.000175987 -0 0.000794033 -0 0.000794033)
(0.00089474 -0.000267313 -0 0.00089474 -0 0.00089474)
(0.000894247 -0.000266096 -0 0.000894247 -0 0.000894247)
(0.000893848 -0.000265915 -0 0.000893848 -0 0.000893848)
(0.000894157 -0.000266329 -0 0.000894157 -0 0.000894157)
(0.000997869 -0.000404545 -0 0.000997869 -0 0.000997869)
(0.000997399 -0.000402642 -0 0.000997399 -0 0.000997399)
(0.000996961 -0.000402272 -0 0.00099696 -0 0.000996961)
(0.000997289 -0.000403053 -0 0.000997289 -0 0.000997289)
(0.00110252 -0.000512674 -0 0.00110253 -0 0.00110253)
(0.0011021 -0.000512475 -0 0.0011021 -0 0.0011021)
(0.00110162 -0.000512255 -0 0.00110162 -0 0.00110162)
(0.00110197 -0.000512414 -0 0.00110196 -0 0.00110196)
(0.00120758 -0.000561526 -0 0.00120758 -0 0.00120758)
(0.0012072 -0.000561349 -0 0.0012072 -0 0.0012072)
(0.0012067 -0.000561113 -0 0.00120669 -0 0.00120669)
(0.00120705 -0.000561277 -0 0.00120705 -0 0.00120705)
(0.00131227 -0.000610208 -0 0.00131228 -0 0.00131227)
(0.00131195 -0.000610056 -0 0.00131195 -0 0.00131195)
(0.00131141 -0.000609808 -0 0.00131141 -0 0.00131141)
(0.00131178 -0.000609975 -0 0.00131177 -0 0.00131178)
(0.00141581 -0.000658351 -0 0.00141581 -0 0.00141581)
(0.00141554 -0.000658226 -0 0.00141554 -0 0.00141554)
(0.00141498 -0.000657968 -0 0.00141498 -0 0.00141498)
(0.00141535 -0.000658137 -0 0.00141535 -0 0.00141535)
(0.00151744 -0.000705609 -0 0.00151744 -0 0.00151744)
(0.00151723 -0.000705512 -0 0.00151723 -0 0.00151723)
(0.00151666 -0.000705247 -0 0.00151666 -0 0.00151666)
(0.00151703 -0.000705416 -0 0.00151702 -0 0.00151702)
(0.00161648 -0.000751662 -0 0.00161648 -0 0.00161648)
(0.00161633 -0.000751594 -0 0.00161633 -0 0.00161633)
(0.00161575 -0.000751325 -0 0.00161575 -0 0.00161575)
(0.00161611 -0.000751492 -0 0.00161611 -0 0.00161611)
(0.00171228 -0.000796211 -0 0.00171228 -0 0.00171228)
(0.0017122 -0.000796171 -0 0.0017122 -0 0.0017122)
(0.00171162 -0.000795901 -0 0.00171161 -0 0.00171161)
(0.00171196 -0.000796063 -0 0.00171196 -0 0.00171196)
(0.00180425 -0.000838976 -0 0.00180425 -0 0.00180425)
(0.00180423 -0.000838966 -0 0.00180423 -0 0.00180423)
(0.00180365 -0.000838695 -0 0.00180364 -0 0.00180364)
(0.00180398 -0.000838852 -0 0.00180398 -0 0.00180398)
(0.00189303 -0.000880258 -0 0.00189303 -0 0.00189303)
(0.00189305 -0.000880268 -0 0.00189305 -0 0.00189305)
(0.00189245 -0.000879989 -0 0.00189245 -0 0.00189245)
(0.0018928 -0.000880152 -0 0.0018928 -0 0.0018928)
(0.0019794 -0.000920423 -0 0.00197941 -0 0.0019794)
(0.00197945 -0.000920446 -0 0.00197945 -0 0.00197945)
(0.00197883 -0.000920156 -0 0.00197883 -0 0.00197883)
(0.00197921 -0.000920334 -0 0.00197921 -0 0.00197921)
(0.00206394 -0.000959732 -0 0.00206394 -0 0.00206394)
(0.00206401 -0.000959763 -0 0.00206401 -0 0.00206401)
(0.00206335 -0.000959459 -0 0.00206335 -0 0.00206335)
(0.00206378 -0.000959658 -0 0.00206378 -0 0.00206378)
(0.00214701 -0.00099836 -0 0.00214701 -0 0.00214701)
(0.00214708 -0.000998394 -0 0.00214708 -0 0.00214708)
(0.0021464 -0.000998076 -0 0.0021464 -0 0.0021464)
(0.00214688 -0.000998299 -0 0.00214688 -0 0.00214688)
(0.00222885 -0.00103642 -0 0.00222885 -0 0.00222885)
(0.00222892 -0.00103645 -0 0.00222892 -0 0.00222892)
(0.00222821 -0.00103612 -0 0.00222821 -0 0.00222821)
(0.00222875 -0.00103637 -0 0.00222875 -0 0.00222875)
(0.00230959 -0.00107396 -0 0.0023096 -0 0.00230959)
(0.00230966 -0.00107399 -0 0.00230965 -0 0.00230966)
(0.00230891 -0.00107364 -0 0.00230891 -0 0.00230891)
(0.00230951 -0.00107392 -0 0.00230951 -0 0.00230951)
(0.00238928 -0.00111102 -0 0.00238928 -0 0.00238928)
(0.00238933 -0.00111104 -0 0.00238933 -0 0.00238933)
(0.00238856 -0.00111068 -0 0.00238855 -0 0.00238856)
(0.00238922 -0.00111099 -0 0.00238922 -0 0.00238922)
(0.0024679 -0.00114758 -0 0.00246791 -0 0.00246791)
(0.00246794 -0.00114759 -0 0.00246793 -0 0.00246794)
(0.00246713 -0.00114721 -0 0.00246713 -0 0.00246713)
(0.00246786 -0.00114755 -0 0.00246786 -0 0.00246786)
(0.0025454 -0.00118361 -0 0.0025454 -0 0.0025454)
(0.00254541 -0.00118362 -0 0.00254541 -0 0.00254541)
(0.00254457 -0.00118322 -0 0.00254457 -0 0.00254457)
(0.00254537 -0.0011836 -0 0.00254538 -0 0.00254537)
(0.00262168 -0.00121908 -0 0.00262168 -0 0.00262168)
(0.00262167 -0.00121908 -0 0.00262167 -0 0.00262167)
(0.00262079 -0.00121866 -0 0.00262078 -0 0.00262078)
(0.00262166 -0.00121907 -0 0.00262167 -0 0.00262167)
(0.00269662 -0.00125393 -0 0.00269662 -0 0.00269662)
(0.00269658 -0.00125391 -0 0.00269658 -0 0.00269658)
(0.00269565 -0.00125348 -0 0.00269565 -0 0.00269565)
(0.00269661 -0.00125393 -0 0.00269662 -0 0.00269661)
(0.00277008 -0.00128809 -0 0.00277008 -0 0.00277008)
(0.00277 -0.00128805 -0 0.00277 -0 0.00277)
(0.00276902 -0.00128759 -0 0.00276902 -0 0.00276902)
(0.00277008 -0.00128809 -0 0.00277008 -0 0.00277008)
(0.00284188 -0.00132148 -0 0.00284188 -0 0.00284188)
(0.00284177 -0.00132142 -0 0.00284176 -0 0.00284177)
(0.00284073 -0.00132094 -0 0.00284072 -0 0.00284072)
(0.0028419 -0.00132148 -0 0.0028419 -0 0.0028419)
(0.00291185 -0.00135401 -0 0.00291186 -0 0.00291185)
(0.00291169 -0.00135394 -0 0.00291169 -0 0.00291169)
(0.00291058 -0.00135342 -0 0.00291058 -0 0.00291058)
(0.00291189 -0.00135403 -0 0.00291189 -0 0.00291189)
(0.00297979 -0.0013856 -0 0.00297979 -0 0.00297979)
(0.00297957 -0.0013855 -0 0.00297957 -0 0.00297957)
(0.00297839 -0.00138495 -0 0.00297839 -0 0.00297839)
(0.00297985 -0.00138563 -0 0.00297985 -0 0.00297985)
(0.00304547 -0.00141615 -0 0.00304548 -0 0.00304548)
(0.0030452 -0.00141601 -0 0.00304519 -0 0.00304519)
(0.00304394 -0.00141543 -0 0.00304393 -0 0.00304394)
(0.00304556 -0.00141619 -0 0.00304557 -0 0.00304556)
(0.00310867 -0.00144553 -0 0.00310867 -0 0.00310867)
(0.00310832 -0.00144537 -0 0.00310832 -0 0.00310832)
(0.00310698 -0.00144474 -0 0.00310698 -0 0.00310698)
(0.00310879 -0.00144559 -0 0.0031088 -0 0.00310879)
(0.00316913 -0.00147364 -0 0.00316913 -0 0.00316913)
(0.0031687 -0.00147345 -0 0.0031687 -0 0.0031687)
(0.00316727 -0.00147278 -0 0.00316727 -0 0.00316727)
(0.00316929 -0.00147372 -0 0.0031693 -0 0.00316929)
(0.00322657 -0.00150035 -0 0.00322657 -0 0.00322657)
(0.00322607 -0.00150012 -0 0.00322606 -0 0.00322607)
(0.00322454 -0.00149941 -0 0.00322454 -0 0.00322454)
(0.00322678 -0.00150046 -0 0.00322679 -0 0.00322679)
(0.00328071 -0.00152553 -0 0.00328071 -0 0.00328071)
(0.00328013 -0.00152526 -0 0.00328012 -0 0.00328013)
(0.00327851 -0.00152451 -0 0.00327851 -0 0.00327851)
(0.00328099 -0.00152566 -0 0.003281 -0 0.00328099)
(0.00333123 -0.00154902 -0 0.00333123 -0 0.00333123)
(0.00333058 -0.00154872 -0 0.00333057 -0 0.00333058)
(0.00332886 -0.00154792 -0 0.00332886 -0 0.00332886)
(0.0033316 -0.00154919 -0 0.00333161 -0 0.0033316)
(0.00337781 -0.00157068 -0 0.00337782 -0 0.00337782)
(0.00337709 -0.00157035 -0 0.00337708 -0 0.00337709)
(0.00337527 -0.0015695 -0 0.00337527 -0 0.00337527)
(0.00337827 -0.0015709 -0 0.00337828 -0 0.00337828)
(0.0034201 -0.00159035 -0 0.0034201 -0 0.0034201)
(0.00341931 -0.00158998 -0 0.0034193 -0 0.00341931)
(0.00341739 -0.00158909 -0 0.00341739 -0 0.00341739)
(0.00342067 -0.00159061 -0 0.00342068 -0 0.00342068)
(0.00345772 -0.00160784 -0 0.00345772 -0 0.00345772)
(0.00345686 -0.00160744 -0 0.00345685 -0 0.00345686)
(0.00345485 -0.0016065 -0 0.00345485 -0 0.00345485)
(0.00345842 -0.00160817 -0 0.00345843 -0 0.00345842)
(0.00349026 -0.00162297 -0 0.00349026 -0 0.00349026)
(0.00348935 -0.00162255 -0 0.00348934 -0 0.00348934)
(0.00348724 -0.00162157 -0 0.00348724 -0 0.00348724)
(0.00349111 -0.00162337 -0 0.00349112 -0 0.00349111)
(0.00351732 -0.00163555 -0 0.00351732 -0 0.00351732)
(0.00351635 -0.0016351 -0 0.00351634 -0 0.00351635)
(0.00351417 -0.00163409 -0 0.00351417 -0 0.00351417)
(0.00351832 -0.00163602 -0 0.00351833 -0 0.00351833)
(0.00353843 -0.00164537 -0 0.00353843 -0 0.00353843)
(0.00353742 -0.0016449 -0 0.00353742 -0 0.00353742)
(0.00353517 -0.00164385 -0 0.00353517 -0 0.00353517)
(0.00353961 -0.00164592 -0 0.00353962 -0 0.00353961)
(0.00355313 -0.00165221 -0 0.00355313 -0 0.00355313)
(0.00355209 -0.00165172 -0 0.00355209 -0 0.00355209)
(0.00354977 -0.00165064 -0 0.00354977 -0 0.00354977)
(0.0035545 -0.00165284 -0 0.0035545 -0 0.0035545)
(0.00356092 -0.00165583 -0 0.00356092 -0 0.00356092)
(0.00355986 -0.00165533 -0 0.00355986 -0 0.00355986)
(0.0035575 -0.00165424 -0 0.0035575 -0 0.0035575)
(0.00356248 -0.00165655 -0 0.00356248 -0 0.00356248)
(0.00356129 -0.001656 -0 0.00356129 -0 0.00356129)
(0.00356021 -0.0016555 -0 0.00356021 -0 0.00356021)
(0.00355782 -0.00165438 -0 0.00355782 -0 0.00355782)
(0.00356303 -0.00165681 -0 0.00356303 -0 0.00356303)
(0.00355369 -0.00165247 -0 0.0035537 -0 0.00355369)
(0.00355261 -0.00165196 -0 0.00355261 -0 0.00355261)
(0.0035502 -0.00165084 -0 0.0035502 -0 0.0035502)
(0.00355561 -0.00165336 -0 0.0035556 -0 0.00355561)
(0.00353758 -0.00164497 -0 0.00353758 -0 0.00353758)
(0.00353649 -0.00164447 -0 0.0035365 -0 0.0035365)
(0.00353409 -0.00164335 -0 0.00353408 -0 0.00353408)
(0.00353964 -0.00164593 -0 0.00353963 -0 0.00353964)
(0.00351237 -0.00163325 -0 0.00351238 -0 0.00351237)
(0.00351131 -0.00163276 -0 0.00351132 -0 0.00351131)
(0.00350891 -0.00163164 -0 0.00350891 -0 0.00350891)
(0.00351454 -0.00163426 -0 0.00351454 -0 0.00351454)
(0.0034775 -0.00161704 -0 0.00347751 -0 0.00347751)
(0.00347647 -0.00161656 -0 0.00347648 -0 0.00347648)
(0.0034741 -0.00161545 -0 0.00347409 -0 0.00347409)
(0.00347973 -0.00161807 -0 0.00347972 -0 0.00347973)
(0.00343239 -0.00159606 -0 0.0034324 -0 0.0034324)
(0.00343141 -0.00159561 -0 0.00343143 -0 0.00343142)
(0.00342907 -0.00159451 -0 0.00342906 -0 0.00342906)
(0.00343461 -0.00159709 -0 0.0034346 -0 0.0034346)
(0.00337646 -0.00157006 -0 0.00337648 -0 0.00337647)
(0.00337556 -0.00156964 -0 0.00337557 -0 0.00337556)
(0.00337324 -0.00156855 -0 0.00337322 -0 0.00337323)
(0.00337856 -0.00157103 -0 0.00337855 -0 0.00337856)
(0.00330913 -0.00153875 -0 0.00330915 -0 0.00330914)
(0.00330831 -0.00153837 -0 0.00330833 -0 0.00330832)
(0.00330601 -0.00153729 -0 0.00330599 -0 0.003306)
(0.00331099 -0.00153961 -0 0.00331098 -0 0.00331098)
(0.0032298 -0.00150186 -0 0.00322983 -0 0.00322982)
(0.00322909 -0.00150153 -0 0.0032291 -0 0.00322909)
(0.00322678 -0.00150045 -0 0.00322676 -0 0.00322677)
(0.00323125 -0.00150253 -0 0.00323124 -0 0.00323124)
(0.00313778 -0.00145907 -0 0.00313781 -0 0.0031378)
(0.00313718 -0.00145879 -0 0.00313719 -0 0.00313718)
(0.00313482 -0.00145768 -0 0.00313479 -0 0.0031348)
(0.00313859 -0.00145944 -0 0.00313858 -0 0.00313859)
(0.00303214 -0.00140995 -0 0.00303217 -0 0.00303215)
(0.00303169 -0.00140974 -0 0.00303169 -0 0.00303169)
(0.00302916 -0.00140855 -0 0.00302913 -0 0.00302914)
(0.0030322 -0.00140997 -0 0.00303219 -0 0.0030322)
(0.00291301 -0.00135456 -0 0.00291304 -0 0.00291302)
(0.00291268 -0.0013544 -0 0.00291268 -0 0.00291268)
(0.00290998 -0.00135313 -0 0.00290995 -0 0.00290996)
(0.00291247 -0.0013543 -0 0.00291247 -0 0.00291247)
(0.00278094 -0.00129314 -0 0.00278097 -0 0.00278095)
(0.0027807 -0.00129302 -0 0.00278069 -0 0.0027807)
(0.00277782 -0.00129168 -0 0.00277779 -0 0.0027778)
(0.00277989 -0.00129265 -0 0.0027799 -0 0.00277989)
(0.00263663 -0.00122604 -0 0.00263666 -0 0.00263664)
(0.00263646 -0.00122595 -0 0.00263645 -0 0.00263645)
(0.00263338 -0.00122451 -0 0.00263335 -0 0.00263336)
(0.00263515 -0.00122535 -0 0.00263516 -0 0.00263516)
(0.00248097 -0.00115366 -0 0.002481 -0 0.00248098)
(0.00248085 -0.00115359 -0 0.00248083 -0 0.00248084)
(0.00247758 -0.00115207 -0 0.00247755 -0 0.00247756)
(0.00247913 -0.0011528 -0 0.00247915 -0 0.00247914)
(0.00231504 -0.0010765 -0 0.00231506 -0 0.00231505)
(0.00231496 -0.00107645 -0 0.00231492 -0 0.00231494)
(0.0023115 -0.00107484 -0 0.00231148 -0 0.00231149)
(0.00231288 -0.0010755 -0 0.00231292 -0 0.0023129)
(0.00213996 -0.000995086 -0 0.00213998 -0 0.00213997)
(0.00213989 -0.000995036 -0 0.00213983 -0 0.00213986)
(0.00213628 -0.000993366 -0 0.00213626 -0 0.00213627)
(0.00213751 -0.000993956 -0 0.00213757 -0 0.00213754)
(0.00195704 -0.000910028 -0 0.00195706 -0 0.00195705)
(0.00195695 -0.000909967 -0 0.00195689 -0 0.00195692)
(0.00195323 -0.000908248 -0 0.00195322 -0 0.00195322)
(0.00195435 -0.000908784 -0 0.0019544 -0 0.00195438)
(0.00176708 -0.000639583 -0 0.00176708 -0 0.00176708)
(0.00176687 -0.000631448 -0 0.00176686 -0 0.00176686)
(0.00176302 -0.000613975 -0 0.00176302 -0 0.00176302)
(0.00176415 -0.000630157 -0 0.00176417 -0 0.00176416)
(0.00157368 -0.000371668 -0 0.00157367 -0 0.00157367)
(0.00157343 -0.000367754 -0 0.00157344 -0 0.00157344)
(0.00156961 -0.000359397 -0 0.00156962 -0 0.00156962)
(0.00157067 -0.000366461 -0 0.00157065 -0 0.00157066)
(0.00138325 -0.000229689 -0 0.00138325 -0 0.00138325)
(0.00138308 -0.000227822 -0 0.0013831 -0 0.00138309)
(0.00137955 -0.000223562 -0 0.00137956 -0 0.00137956)
(0.00138036 -0.000226766 -0 0.00138034 -0 0.00138035)
(0.00120153 -0.000146839 -0 0.00120152 -0 0.00120153)
(0.00120149 -0.000146047 -0 0.0012015 -0 0.00120149)
(0.0011984 -0.00014391 -0 0.00119841 -0 0.0011984)
(0.0011989 -0.000145273 -0 0.00119889 -0 0.0011989)
(0.00103258 -9.63304e-05 -0 0.00103257 -0 0.00103257)
(0.00103267 -9.6147e-05 -0 0.00103268 -0 0.00103267)
(0.0010301 -9.50869e-05 -0 0.0010301 -0 0.0010301)
(0.00103031 -9.55887e-05 -0 0.00103031 -0 0.00103031)
(0.000879122 -6.51713e-05 -0 0.000879118 -0 0.00087912)
(0.000879314 -6.50724e-05 -0 0.000879317 -0 0.000879315)
(0.000877258 -6.45878e-05 -0 0.000877261 -0 0.000877259)
(0.000877236 -6.47192e-05 -0 0.000877233 -0 0.000877234)
(0.00074251 -4.52179e-05 -0 0.000742508 -0 0.000742509)
(0.000742756 -4.51645e-05 -0 0.000742758 -0 0.000742757)
(0.000741149 -4.49254e-05 -0 0.000741151 -0 0.00074115)
(0.000740972 -4.4941e-05 -0 0.00074097 -0 0.000740971)
(0.000622937 -3.18455e-05 -0 0.000622935 -0 0.000622936)
(0.000623201 -3.18155e-05 -0 0.000623202 -0 0.000623201)
(0.000621951 -3.16713e-05 -0 0.000621953 -0 0.000621952)
(0.000621705 -3.16717e-05 -0 0.000621704 -0 0.000621705)
(0.000519808 -2.25332e-05 -0 0.000519807 -0 0.000519808)
(0.000520063 -2.25146e-05 -0 0.000520063 -0 0.000520063)
(0.000519086 -2.24178e-05 -0 0.000519087 -0 0.000519087)
(0.000518838 -2.24262e-05 -0 0.000518837 -0 0.000518837)
(0.000432071 -1.58979e-05 -0 0.000432071 -0 0.000432071)
(0.000432299 -1.58844e-05 -0 0.000432299 -0 0.000432299)
(0.000431523 -1.58129e-05 -0 0.000431524 -0 0.000431524)
(0.000431316 -1.5829e-05 -0 0.000431316 -0 0.000431316)
(0.000358466 -1.11393e-05 -0 0.000358466 -0 0.000358466)
(0.000358657 -1.11291e-05 -0 0.000358657 -0 0.000358657)
(0.000358029 -1.10754e-05 -0 0.000358029 -0 0.000358029)
(0.000357887 -1.10969e-05 -0 0.000357887 -0 0.000357887)
(0.000297671 -7.7442e-06 -0 0.000297671 -0 0.000297671)
(0.000297823 -7.73704e-06 -0 0.000297823 -0 0.000297823)
(0.000297303 -7.69794e-06 -0 0.000297304 -0 0.000297304)
(0.000297234 -7.72159e-06 -0 0.000297234 -0 0.000297234)
(0.00024838 -5.33516e-06 -0 0.00024838 -0 0.00024838)
(0.000248492 -5.33014e-06 -0 0.000248492 -0 0.000248492)
(0.000248056 -5.30246e-06 -0 0.000248056 -0 0.000248056)
(0.000248054 -5.32519e-06 -0 0.000248054 -0 0.000248054)
(0.00020936 -3.62736e-06 -0 0.00020936 -0 0.00020936)
(0.000209434 -3.62376e-06 -0 0.000209434 -0 0.000209434)
(0.000209062 -3.6048e-06 -0 0.000209062 -0 0.000209062)
(0.000209113 -3.62448e-06 -0 0.000209113 -0 0.000209113)
(0.000179504 -2.40842e-06 -0 0.000179504 -0 0.000179504)
(0.000179546 -2.40579e-06 -0 0.000179546 -0 0.000179546)
(0.000179225 -2.3934e-06 -0 0.000179225 -0 0.000179225)
(0.000179316 -2.40894e-06 -0 0.000179316 -0 0.000179316)
(0.000157888 -1.51962e-06 -0 0.000157888 -0 0.000157888)
(0.000157908 -1.5178e-06 -0 0.000157908 -0 0.000157908)
(0.000157625 -1.51026e-06 -0 0.000157625 -0 0.000157625)
(0.000157744 -1.52128e-06 -0 0.000157744 -0 0.000157744)
(0.000143816 -8.38601e-07 -0 0.000143816 -0 0.000143816)
(0.000143822 -8.37509e-07 -0 0.000143822 -0 0.000143822)
(0.000143564 -8.33534e-07 -0 0.000143564 -0 0.000143564)
(0.000143701 -8.40055e-07 -0 0.000143701 -0 0.000143701)
(0.000136848 -2.69355e-07 -0 0.000136848 -0 0.000136848)
(0.000136848 -2.68978e-07 -0 0.000136848 -0 0.000136848)
(0.000136603 -2.67746e-07 -0 0.000136603 -0 0.000136603)
(0.000136747 -2.699e-07 -0 0.000136747 -0 0.000136747)
)
;

boundaryField
{
    inlet
    {
        type            cyclic;
    }
    outlet
    {
        type            cyclic;
    }
    fixedWalls-bottom
    {
        type            kqRWallFunction;
        value           nonuniform List<symmTensor> 4((8.49229e-10 -0 -0 8.49229e-10 -0 8.49229e-10) (8.48333e-10 -0 -0 8.48333e-10 -0 8.48333e-10) (8.47962e-10 -0 -0 8.47962e-10 -0 8.47962e-10) (8.48425e-10 -0 -0 8.48425e-10 -0 8.48425e-10));
    }
    fixedWalls-top
    {
        type            symmetry;
    }
    frontAndBack
    {
        type            empty;
    }
}


// ************************************************************************* //
