# Residuals   
# Time        	p             	Ux            	Uy            
0             	N/A	N/A
1             	9.999964e-01	0.000000e+00	0.000000e+00
2             	1.000000e+00	9.274906e-01	1.000000e+00
3             	2.202630e-01	3.216426e-01	3.089999e-01
4             	2.269525e-01	4.475863e-02	1.344204e-01
5             	2.582487e-01	2.530450e-02	1.034920e-01
6             	2.712518e-01	2.105651e-02	1.279204e-01
7             	2.211305e-01	1.907987e-02	5.803415e-02
8             	5.487298e-02	1.911644e-02	5.734741e-02
9             	9.771611e-02	1.873706e-02	5.829281e-02
10            	1.277135e-01	1.928561e-02	5.704850e-02
11            	1.400101e-01	1.910712e-02	5.857228e-02
12            	1.070411e-01	1.855986e-02	5.777099e-02
13            	7.945188e-02	1.787993e-02	5.689845e-02
14            	8.308270e-02	1.703624e-02	5.062998e-02
15            	8.977322e-02	1.613169e-02	4.699895e-02
16            	9.444961e-02	1.522658e-02	3.894023e-02
17            	7.532611e-02	1.428341e-02	3.523840e-02
18            	6.539481e-02	1.347720e-02	3.385128e-02
19            	6.470474e-02	1.259750e-02	3.397728e-02
20            	6.737441e-02	1.191659e-02	3.290619e-02
21            	7.563554e-02	1.108581e-02	3.336265e-02
22            	7.771150e-02	1.056852e-02	3.230798e-02
23            	7.903017e-02	9.900447e-03	3.365762e-02
24            	7.540567e-02	9.382797e-03	3.275704e-02
25            	7.434544e-02	8.997153e-03	3.281396e-02
26            	8.004385e-02	8.352159e-03	3.553608e-02
27            	6.939396e-02	8.090338e-03	3.288219e-02
28            	7.037006e-02	7.839106e-03	3.335658e-02
29            	7.914000e-02	7.373635e-03	3.489988e-02
30            	7.591279e-02	7.046765e-03	3.528123e-02
31            	6.700908e-02	6.961995e-03	3.354517e-02
32            	6.859588e-02	6.772543e-03	3.363728e-02
33            	7.892431e-02	6.302407e-03	3.657632e-02
34            	7.333333e-02	6.158337e-03	3.570100e-02
35            	6.623534e-02	6.131557e-03	3.446284e-02
36            	6.696153e-02	5.994235e-03	3.637685e-02
37            	7.745172e-02	5.701946e-03	3.900295e-02
38            	7.848221e-02	5.409635e-03	4.232269e-02
39            	6.751957e-02	5.437200e-03	3.931127e-02
40            	6.399641e-02	5.389901e-03	3.964166e-02
41            	6.673587e-02	5.257860e-03	4.173070e-02
42            	7.235752e-02	5.027455e-03	4.465727e-02
43            	7.663883e-02	4.741572e-03	4.709461e-02
44            	6.832867e-02	4.785112e-03	4.339487e-02
45            	6.321799e-02	4.771029e-03	4.385951e-02
46            	6.142723e-02	4.705088e-03	4.566278e-02
47            	6.313058e-02	4.582117e-03	4.842544e-02
48            	6.665178e-02	4.395380e-03	5.069591e-02
49            	7.031345e-02	4.145103e-03	5.572819e-02
50            	6.884804e-02	4.112074e-03	4.999018e-02
51            	6.140256e-02	4.089104e-03	5.126423e-02
52            	5.579648e-02	4.053587e-03	5.142736e-02
53            	5.280302e-02	3.996583e-03	5.231890e-02
54            	5.354344e-02	3.912679e-03	5.362940e-02
55            	5.612472e-02	3.798749e-03	5.431158e-02
56            	5.706556e-02	3.648644e-03	5.622345e-02
57            	6.027184e-02	3.473733e-03	6.049964e-02
58            	5.941656e-02	3.421531e-03	5.440451e-02
59            	5.697588e-02	3.355711e-03	5.220269e-02
60            	5.131268e-02	3.288770e-03	4.815503e-02
61            	4.613427e-02	3.221612e-03	4.442921e-02
62            	4.075242e-02	3.155714e-03	4.254056e-02
63            	3.772307e-02	3.096060e-03	4.075719e-02
64            	3.816962e-02	3.038804e-03	3.837225e-02
65            	4.137010e-02	2.982850e-03	3.692864e-02
66            	4.141447e-02	2.925965e-03	3.782453e-02
67            	4.115177e-02	2.865453e-03	3.909458e-02
68            	4.085758e-02	2.799693e-03	3.956579e-02
69            	3.966997e-02	2.726913e-03	3.933283e-02
70            	3.952323e-02	2.648172e-03	4.116214e-02
71            	4.185068e-02	2.604633e-03	3.821996e-02
72            	4.249461e-02	2.574071e-03	3.550693e-02
73            	3.926880e-02	2.540755e-03	3.312417e-02
74            	3.501849e-02	2.506220e-03	3.102056e-02
75            	3.054366e-02	2.470810e-03	2.926130e-02
76            	2.722683e-02	2.434996e-03	2.761479e-02
77            	2.469990e-02	2.399026e-03	2.626987e-02
78            	2.197982e-02	2.363080e-03	2.505601e-02
79            	2.084554e-02	2.327340e-03	2.384556e-02
80            	2.066537e-02	2.291805e-03	2.292319e-02
81            	1.848850e-02	2.256495e-03	2.225516e-02
82            	1.838292e-02	2.221428e-03	2.163533e-02
83            	1.907800e-02	2.186477e-03	2.158623e-02
84            	1.882092e-02	2.151448e-03	2.161584e-02
85            	2.059335e-02	2.116334e-03	2.243859e-02
86            	2.145363e-02	2.080842e-03	2.338937e-02
87            	2.408839e-02	2.044792e-03	2.437475e-02
88            	3.060311e-02	2.011283e-03	2.610992e-02
89            	3.349796e-02	1.981154e-03	2.634016e-02
90            	4.180885e-02	1.961727e-03	2.555094e-02
91            	3.841954e-02	1.942439e-03	2.631855e-02
92            	3.178433e-02	1.923482e-03	2.589010e-02
93            	2.628730e-02	1.904627e-03	2.530664e-02
94            	2.356038e-02	1.885933e-03	2.532764e-02
95            	2.284431e-02	1.867263e-03	2.552314e-02
96            	2.415320e-02	1.848571e-03	2.579076e-02
97            	2.499867e-02	1.829950e-03	2.593340e-02
98            	2.420588e-02	1.812476e-03	2.616724e-02
99            	2.377349e-02	1.794977e-03	2.635366e-02
100           	2.337736e-02	1.776717e-03	2.667294e-02
101           	2.343011e-02	1.757378e-03	2.696779e-02
102           	2.428660e-02	1.737073e-03	2.692893e-02
103           	3.189874e-02	1.719177e-03	2.896993e-02
104           	3.464295e-02	1.710520e-03	2.727776e-02
105           	3.352595e-02	1.701442e-03	2.845242e-02
106           	2.759175e-02	1.692134e-03	2.671376e-02
107           	2.328713e-02	1.682385e-03	2.497197e-02
108           	2.048572e-02	1.672025e-03	2.386466e-02
109           	1.877170e-02	1.660838e-03	2.305246e-02
110           	1.847053e-02	1.648610e-03	2.276153e-02
111           	1.973588e-02	1.635046e-03	2.282019e-02
112           	2.084786e-02	1.621336e-03	2.374745e-02
113           	2.247016e-02	1.611632e-03	2.482430e-02
114           	2.702412e-02	1.605802e-03	2.563405e-02
115           	2.536523e-02	1.599284e-03	2.564195e-02
116           	2.241740e-02	1.591770e-03	2.443242e-02
117           	1.991493e-02	1.583204e-03	2.324056e-02
118           	1.898712e-02	1.573401e-03	2.244269e-02
119           	1.878584e-02	1.562516e-03	2.208321e-02
120           	2.655268e-02	1.553055e-03	2.406095e-02
121           	3.421489e-02	1.548670e-03	2.351155e-02
122           	3.470152e-02	1.545949e-03	2.314850e-02
123           	3.073917e-02	1.542459e-03	2.249451e-02
124           	2.744272e-02	1.537819e-03	2.127775e-02
125           	2.672667e-02	1.531733e-03	2.057946e-02
126           	2.715979e-02	1.524971e-03	2.192758e-02
127           	2.863958e-02	1.520281e-03	2.279718e-02
128           	3.086706e-02	1.516784e-03	2.281722e-02
129           	3.022315e-02	1.511838e-03	2.322271e-02
130           	3.828760e-02	1.505336e-03	2.372807e-02
131           	3.663228e-02	1.498126e-03	2.596326e-02
132           	3.936709e-02	1.492781e-03	2.497727e-02
133           	3.663143e-02	1.486893e-03	2.416165e-02
134           	4.296031e-02	1.480619e-03	2.626856e-02
135           	4.231704e-02	1.474675e-03	2.475090e-02
136           	5.767313e-02	1.454924e-03	2.363597e-02
137           	5.850508e-02	1.427951e-03	2.133161e-02
138           	4.864393e-02	1.423981e-03	1.962007e-02
139           	3.682863e-02	1.420015e-03	1.841099e-02
140           	2.626957e-02	1.416355e-03	1.747999e-02
141           	2.048772e-02	1.413871e-03	1.672655e-02
142           	1.960366e-02	1.412244e-03	1.583082e-02
143           	2.093205e-02	1.411111e-03	1.562105e-02
144           	2.185955e-02	1.409859e-03	1.536792e-02
145           	2.120530e-02	1.408402e-03	1.529114e-02
146           	1.972437e-02	1.406755e-03	1.533755e-02
147           	1.790690e-02	1.404793e-03	1.539836e-02
148           	1.644251e-02	1.402669e-03	1.544340e-02
149           	1.537427e-02	1.400211e-03	1.540811e-02
150           	1.509823e-02	1.397401e-03	1.532321e-02
151           	1.489336e-02	1.394256e-03	1.519830e-02
152           	1.459990e-02	1.390801e-03	1.501982e-02
153           	1.417758e-02	1.387134e-03	1.479630e-02
154           	1.373965e-02	1.383234e-03	1.456071e-02
155           	1.325151e-02	1.379090e-03	1.437054e-02
156           	1.273276e-02	1.374725e-03	1.413296e-02
157           	1.225552e-02	1.370158e-03	1.387378e-02
158           	1.171689e-02	1.365408e-03	1.369983e-02
159           	1.154488e-02	1.360493e-03	1.340407e-02
160           	1.131208e-02	1.355429e-03	1.313795e-02
161           	1.082058e-02	1.350257e-03	1.288896e-02
162           	1.012390e-02	1.345489e-03	1.267810e-02
163           	1.034753e-02	1.341137e-03	1.233923e-02
164           	1.160146e-02	1.336894e-03	1.242430e-02
165           	1.333227e-02	1.332829e-03	1.261728e-02
166           	1.438289e-02	1.328833e-03	1.300809e-02
167           	1.474060e-02	1.324822e-03	1.336344e-02
168           	1.456804e-02	1.320756e-03	1.352782e-02
169           	1.421823e-02	1.316606e-03	1.356921e-02
170           	1.380543e-02	1.312355e-03	1.353440e-02
171           	1.343242e-02	1.307991e-03	1.352718e-02
172           	1.305373e-02	1.303506e-03	1.350971e-02
173           	1.271127e-02	1.298897e-03	1.343503e-02
174           	1.242230e-02	1.294195e-03	1.331096e-02
175           	1.227398e-02	1.289421e-03	1.314921e-02
176           	1.212282e-02	1.284527e-03	1.295562e-02
177           	1.190457e-02	1.279515e-03	1.273983e-02
178           	1.166146e-02	1.274389e-03	1.250137e-02
179           	1.140051e-02	1.269154e-03	1.235651e-02
180           	1.110345e-02	1.263816e-03	1.216176e-02
181           	1.090108e-02	1.258379e-03	1.193358e-02
182           	1.054112e-02	1.252849e-03	1.165583e-02
183           	1.038590e-02	1.247233e-03	1.135231e-02
184           	9.926672e-03	1.241534e-03	1.112235e-02
185           	9.652169e-03	1.235759e-03	1.098932e-02
186           	9.373307e-03	1.229915e-03	1.089889e-02
187           	9.057520e-03	1.224052e-03	1.083399e-02
188           	8.702999e-03	1.218155e-03	1.081671e-02
189           	8.386122e-03	1.212200e-03	1.082636e-02
190           	8.052683e-03	1.206191e-03	1.081081e-02
191           	7.761414e-03	1.200132e-03	1.078739e-02
192           	7.441847e-03	1.194027e-03	1.074659e-02
193           	7.242454e-03	1.187878e-03	1.069960e-02
194           	6.915877e-03	1.181691e-03	1.062330e-02
195           	6.650198e-03	1.175467e-03	1.053847e-02
196           	6.394747e-03	1.169210e-03	1.043884e-02
197           	6.343276e-03	1.162923e-03	1.033409e-02
198           	6.208343e-03	1.156608e-03	1.021948e-02
199           	5.870779e-03	1.150268e-03	1.009371e-02
200           	5.772507e-03	1.143905e-03	9.961375e-03
201           	5.666475e-03	1.137547e-03	9.836683e-03
202           	5.477462e-03	1.131209e-03	9.700372e-03
203           	5.340567e-03	1.124856e-03	9.567670e-03
204           	5.187791e-03	1.118487e-03	9.423495e-03
205           	5.005088e-03	1.112113e-03	9.285297e-03
206           	5.118038e-03	1.105784e-03	9.213529e-03
207           	5.172863e-03	1.099556e-03	9.142940e-03
208           	5.513758e-03	1.093393e-03	8.983883e-03
209           	6.114527e-03	1.087262e-03	8.707140e-03
210           	6.805193e-03	1.081148e-03	8.425711e-03
211           	7.500203e-03	1.075044e-03	8.206632e-03
212           	8.267908e-03	1.068944e-03	8.028046e-03
213           	9.068873e-03	1.062843e-03	7.894203e-03
214           	9.714011e-03	1.056745e-03	7.747682e-03
215           	1.028121e-02	1.050684e-03	7.580515e-03
216           	1.028816e-02	1.044630e-03	7.425352e-03
217           	1.018603e-02	1.038592e-03	7.299377e-03
218           	9.919204e-03	1.032580e-03	7.212456e-03
219           	9.584890e-03	1.026578e-03	7.165128e-03
220           	9.337097e-03	1.020566e-03	7.121708e-03
221           	9.150217e-03	1.014547e-03	7.103039e-03
222           	8.855580e-03	1.008515e-03	7.080467e-03
223           	8.743290e-03	1.002475e-03	7.050872e-03
224           	8.544383e-03	9.964237e-04	7.022552e-03
225           	8.430336e-03	9.903636e-04	7.001510e-03
226           	8.391734e-03	9.842908e-04	6.963556e-03
227           	8.335822e-03	9.782117e-04	6.974345e-03
228           	8.290386e-03	9.721213e-04	6.995982e-03
229           	8.306774e-03	9.660246e-04	7.021147e-03
230           	8.230260e-03	9.599190e-04	7.049902e-03
231           	8.161148e-03	9.538086e-04	7.095136e-03
232           	8.126380e-03	9.476901e-04	7.120530e-03
233           	8.074674e-03	9.415694e-04	7.185565e-03
234           	7.994593e-03	9.354427e-04	7.252869e-03
235           	7.926080e-03	9.293213e-04	7.308378e-03
236           	7.813037e-03	9.232158e-04	7.378682e-03
237           	7.711711e-03	9.171284e-04	7.483110e-03
238           	7.678812e-03	9.110403e-04	7.594420e-03
239           	7.563407e-03	9.049544e-04	7.724613e-03
240           	7.502836e-03	8.988667e-04	7.852843e-03
241           	7.490488e-03	8.927819e-04	7.973229e-03
242           	7.454280e-03	8.866978e-04	8.100096e-03
243           	7.347995e-03	8.806189e-04	8.231961e-03
244           	7.286986e-03	8.745412e-04	8.350488e-03
245           	7.174122e-03	8.684704e-04	8.483115e-03
246           	7.143553e-03	8.624026e-04	8.606708e-03
247           	7.048797e-03	8.563426e-04	8.724979e-03
248           	7.003232e-03	8.502878e-04	8.844647e-03
249           	6.753144e-03	8.442424e-04	8.963212e-03
250           	6.721156e-03	8.382026e-04	9.087635e-03
251           	6.671305e-03	8.321740e-04	9.208797e-03
252           	6.623236e-03	8.261523e-04	9.312603e-03
253           	6.529278e-03	8.201426e-04	9.414497e-03
254           	6.575173e-03	8.141418e-04	9.521934e-03
255           	6.550640e-03	8.081544e-04	9.629123e-03
256           	6.336933e-03	8.021763e-04	9.713149e-03
257           	6.371915e-03	7.962130e-04	9.809573e-03
258           	6.347491e-03	7.902684e-04	9.894691e-03
259           	6.232612e-03	7.843465e-04	9.979336e-03
260           	6.222683e-03	7.784517e-04	1.004462e-02
261           	6.272627e-03	7.725733e-04	1.010038e-02
262           	6.089247e-03	7.667070e-04	1.013770e-02
263           	6.118834e-03	7.608556e-04	1.018730e-02
264           	6.155003e-03	7.550151e-04	1.022450e-02
265           	5.998335e-03	7.491906e-04	1.025386e-02
266           	6.041924e-03	7.433839e-04	1.028266e-02
267           	6.070148e-03	7.375889e-04	1.030944e-02
268           	5.965627e-03	7.318133e-04	1.030084e-02
269           	5.972090e-03	7.260529e-04	1.030478e-02
270           	6.008548e-03	7.203120e-04	1.029170e-02
271           	5.821789e-03	7.145863e-04	1.027178e-02
272           	6.053283e-03	7.088789e-04	1.025566e-02
273           	5.994196e-03	7.031855e-04	1.022252e-02
274           	5.868793e-03	6.975117e-04	1.018815e-02
275           	6.069718e-03	6.918588e-04	1.016798e-02
276           	6.117865e-03	6.862197e-04	1.010348e-02
277           	6.066846e-03	6.806018e-04	1.004866e-02
278           	6.045759e-03	6.750057e-04	9.980914e-03
279           	6.063012e-03	6.694265e-04	9.901245e-03
280           	6.089752e-03	6.638686e-04	9.823034e-03
281           	6.030790e-03	6.583278e-04	9.748039e-03
282           	5.980090e-03	6.528095e-04	9.639412e-03
283           	5.962608e-03	6.473106e-04	9.547147e-03
284           	6.003565e-03	6.418336e-04	9.456078e-03
285           	6.105795e-03	6.363737e-04	9.371062e-03
286           	6.048889e-03	6.309366e-04	9.255780e-03
287           	5.998843e-03	6.255209e-04	9.158548e-03
288           	5.979795e-03	6.201254e-04	9.049320e-03
289           	5.898573e-03	6.147510e-04	8.927681e-03
290           	5.840473e-03	6.094008e-04	8.803341e-03
291           	5.950603e-03	6.040679e-04	8.692424e-03
292           	5.984590e-03	5.987598e-04	8.561381e-03
293           	5.939918e-03	5.934717e-04	8.456508e-03
294           	5.940308e-03	5.882080e-04	8.329803e-03
295           	5.866150e-03	5.829652e-04	8.207101e-03
296           	5.772684e-03	5.777476e-04	8.074517e-03
297           	5.900935e-03	5.725515e-04	7.970039e-03
298           	5.862412e-03	5.673795e-04	7.862948e-03
299           	5.810407e-03	5.622352e-04	7.733034e-03
300           	5.866254e-03	5.571102e-04	7.609028e-03
301           	5.926065e-03	5.520094e-04	7.476372e-03
302           	6.258955e-03	5.469460e-04	7.267200e-03
303           	6.814609e-03	5.419049e-04	7.178079e-03
304           	7.240442e-03	5.368911e-04	7.166054e-03
305           	7.744755e-03	5.319073e-04	7.438782e-03
306           	8.358670e-03	5.269662e-04	7.632231e-03
307           	9.222905e-03	5.220529e-04	7.839031e-03
308           	9.720422e-03	5.171676e-04	7.930922e-03
309           	1.052777e-02	5.123055e-04	8.060688e-03
310           	1.102921e-02	5.074682e-04	8.300642e-03
311           	1.153696e-02	5.026592e-04	8.677181e-03
312           	1.192986e-02	4.978692e-04	9.012234e-03
313           	1.265454e-02	4.931031e-04	9.321730e-03
314           	1.278543e-02	4.883678e-04	9.518596e-03
315           	1.287583e-02	4.836586e-04	9.570040e-03
316           	1.258363e-02	4.789778e-04	9.441411e-03
317           	1.217235e-02	4.743176e-04	9.184288e-03
318           	1.155540e-02	4.696853e-04	8.929970e-03
319           	1.123678e-02	4.650739e-04	8.605661e-03
320           	1.058589e-02	4.604862e-04	8.318157e-03
321           	1.027035e-02	4.559171e-04	7.967342e-03
322           	9.855131e-03	4.513702e-04	7.717068e-03
323           	9.365722e-03	4.468490e-04	7.440874e-03
324           	9.013686e-03	4.423446e-04	7.176221e-03
325           	8.917072e-03	4.378617e-04	6.946406e-03
326           	8.551082e-03	4.334052e-04	6.786031e-03
327           	8.332462e-03	4.289644e-04	6.638716e-03
328           	8.121924e-03	4.245488e-04	6.519618e-03
329           	7.863409e-03	4.201513e-04	6.436429e-03
330           	7.561576e-03	4.157774e-04	6.489002e-03
331           	7.439500e-03	4.114232e-04	6.565190e-03
332           	7.196505e-03	4.070922e-04	6.640961e-03
333           	7.269807e-03	4.027775e-04	6.732935e-03
334           	7.236704e-03	3.984897e-04	6.810069e-03
335           	7.071385e-03	3.942251e-04	6.919208e-03
336           	6.796888e-03	3.899837e-04	6.892827e-03
337           	6.703589e-03	3.857637e-04	6.923381e-03
338           	6.498167e-03	3.815688e-04	6.998484e-03
339           	6.494114e-03	3.773910e-04	7.095061e-03
340           	6.400152e-03	3.732379e-04	7.159777e-03
341           	6.132165e-03	3.691042e-04	7.275735e-03
342           	6.045017e-03	3.649948e-04	7.356008e-03
343           	5.893418e-03	3.609050e-04	7.421349e-03
344           	5.739516e-03	3.568387e-04	7.507907e-03
345           	5.842088e-03	3.527895e-04	7.587231e-03
346           	5.751807e-03	3.487677e-04	7.662043e-03
347           	5.559223e-03	3.447758e-04	7.774596e-03
348           	5.446334e-03	3.408042e-04	7.859182e-03
349           	5.234323e-03	3.368542e-04	7.963594e-03
350           	5.091915e-03	3.329288e-04	8.069297e-03
351           	5.178530e-03	3.290194e-04	8.193910e-03
352           	5.007466e-03	3.251355e-04	8.301598e-03
353           	4.869977e-03	3.212707e-04	8.403302e-03
354           	4.907130e-03	3.174313e-04	8.530614e-03
355           	4.752827e-03	3.136114e-04	8.634492e-03
356           	4.648657e-03	3.098139e-04	8.764766e-03
357           	4.610339e-03	3.060330e-04	8.852612e-03
358           	4.485550e-03	3.022768e-04	8.955669e-03
359           	4.425327e-03	2.985421e-04	9.044748e-03
360           	4.397673e-03	2.948298e-04	9.125456e-03
361           	4.182089e-03	2.911530e-04	9.182042e-03
362           	4.181418e-03	2.875076e-04	9.265524e-03
363           	4.231383e-03	2.838792e-04	9.347494e-03
364           	4.127416e-03	2.802764e-04	9.403377e-03
365           	3.953503e-03	2.766920e-04	9.397078e-03
366           	3.979935e-03	2.731318e-04	9.442341e-03
367           	3.894971e-03	2.695903e-04	9.474822e-03
368           	4.258387e-03	2.660763e-04	9.413697e-03
369           	5.296663e-03	2.625855e-04	9.643824e-03
370           	6.103847e-03	2.591204e-04	9.956561e-03
371           	7.576602e-03	2.556785e-04	1.071164e-02
372           	8.893222e-03	2.522767e-04	1.149087e-02
373           	1.019524e-02	2.489195e-04	1.208755e-02
374           	1.126505e-02	2.455907e-04	1.270129e-02
375           	1.213020e-02	2.422831e-04	1.340309e-02
376           	1.281201e-02	2.390019e-04	1.428762e-02
377           	1.267753e-02	2.357432e-04	1.482491e-02
378           	1.228924e-02	2.325246e-04	1.485481e-02
379           	1.152578e-02	2.293329e-04	1.464939e-02
380           	1.100492e-02	2.261850e-04	1.440444e-02
381           	1.045962e-02	2.230695e-04	1.402982e-02
382           	9.957931e-03	2.199801e-04	1.362791e-02
383           	9.283422e-03	2.169101e-04	1.317105e-02
384           	8.649324e-03	2.138635e-04	1.274629e-02
385           	8.050746e-03	2.108419e-04	1.228875e-02
386           	7.637996e-03	2.078744e-04	1.186844e-02
387           	7.228960e-03	2.049242e-04	1.146388e-02
388           	6.983136e-03	2.019971e-04	1.112106e-02
389           	6.525100e-03	1.990945e-04	1.074833e-02
390           	6.244990e-03	1.962485e-04	1.053254e-02
391           	6.098852e-03	1.934201e-04	1.031973e-02
392           	5.479686e-03	1.906205e-04	9.989190e-03
393           	5.209597e-03	1.878741e-04	9.823293e-03
394           	5.331446e-03	1.852031e-04	9.578590e-03
395           	5.138441e-03	1.826301e-04	9.272208e-03
396           	4.957110e-03	1.801693e-04	9.164481e-03
397           	4.968628e-03	1.778241e-04	8.993984e-03
398           	4.870413e-03	1.756381e-04	8.876017e-03
399           	4.725485e-03	1.737206e-04	8.722599e-03
400           	4.702482e-03	1.719636e-04	8.634200e-03
401           	4.561178e-03	1.702584e-04	8.453346e-03
402           	4.465735e-03	1.685729e-04	8.399546e-03
403           	4.528870e-03	1.669226e-04	8.379562e-03
404           	4.313835e-03	1.653084e-04	8.269296e-03
405           	4.241096e-03	1.637132e-04	8.219656e-03
406           	4.200237e-03	1.621674e-04	8.238639e-03
407           	4.297822e-03	1.606397e-04	8.334515e-03
408           	5.423686e-03	1.591546e-04	8.961842e-03
409           	6.630989e-03	1.576995e-04	9.806413e-03
410           	8.854166e-03	1.562793e-04	1.112163e-02
411           	1.075353e-02	1.549290e-04	1.264821e-02
412           	1.223190e-02	1.536075e-04	1.446723e-02
413           	1.345026e-02	1.523321e-04	1.629370e-02
414           	1.473055e-02	1.510831e-04	1.802064e-02
415           	1.477588e-02	1.498838e-04	1.891525e-02
416           	1.426019e-02	1.487098e-04	1.910440e-02
417           	1.351486e-02	1.475803e-04	1.858648e-02
418           	1.233818e-02	1.464816e-04	1.771577e-02
419           	1.109841e-02	1.454163e-04	1.688665e-02
420           	1.017295e-02	1.443889e-04	1.606991e-02
421           	9.376756e-03	1.433882e-04	1.529965e-02
422           	8.819012e-03	1.424638e-04	1.455428e-02
423           	8.131024e-03	1.415751e-04	1.367637e-02
424           	7.641991e-03	1.407131e-04	1.289251e-02
425           	6.915857e-03	1.398852e-04	1.230206e-02
426           	6.598679e-03	1.390873e-04	1.180518e-02
427           	6.207563e-03	1.383160e-04	1.133572e-02
428           	5.877544e-03	1.375777e-04	1.078736e-02
429           	5.517295e-03	1.368647e-04	1.034673e-02
430           	5.404599e-03	1.361772e-04	1.000441e-02
431           	5.006678e-03	1.355108e-04	9.575511e-03
432           	4.845792e-03	1.349035e-04	9.306056e-03
433           	4.687580e-03	1.343241e-04	9.034446e-03
434           	4.590344e-03	1.337575e-04	8.855831e-03
435           	4.566117e-03	1.332025e-04	8.761819e-03
436           	4.511084e-03	1.326595e-04	8.467571e-03
437           	5.498358e-03	1.321298e-04	8.817688e-03
438           	6.809138e-03	1.316169e-04	9.571753e-03
439           	9.050261e-03	1.311212e-04	1.115859e-02
440           	1.173425e-02	1.306962e-04	1.327692e-02
441           	1.391786e-02	1.303207e-04	1.591965e-02
442           	1.599421e-02	1.299699e-04	1.853182e-02
443           	1.705256e-02	1.296443e-04	2.038916e-02
444           	1.724840e-02	1.293391e-04	2.130187e-02
445           	1.697088e-02	1.291092e-04	2.101451e-02
446           	1.619670e-02	1.289576e-04	2.021903e-02
447           	1.475733e-02	1.289727e-04	1.930273e-02
448           	1.326085e-02	1.290702e-04	1.814989e-02
449           	1.188422e-02	1.292747e-04	1.716310e-02
450           	1.090263e-02	1.296949e-04	1.617509e-02
451           	9.671355e-03	1.301795e-04	1.499068e-02
452           	9.014673e-03	1.306698e-04	1.401428e-02
453           	8.555961e-03	1.312668e-04	1.305430e-02
454           	8.140703e-03	1.318537e-04	1.204289e-02
455           	7.442102e-03	1.324504e-04	1.120131e-02
456           	7.013963e-03	1.331827e-04	1.056013e-02
457           	6.574008e-03	1.339065e-04	1.002329e-02
458           	6.369372e-03	1.346231e-04	9.501384e-03
459           	5.709616e-03	1.353333e-04	8.825896e-03
460           	5.388973e-03	1.360376e-04	8.328475e-03
461           	5.204496e-03	1.367368e-04	7.939796e-03
462           	5.127714e-03	1.374314e-04	7.580201e-03
463           	5.043527e-03	1.381222e-04	7.468833e-03
464           	6.795431e-03	1.388269e-04	7.959172e-03
465           	8.887316e-03	1.395870e-04	8.933278e-03
466           	1.223692e-02	1.403596e-04	1.091950e-02
467           	1.446910e-02	1.411665e-04	1.312298e-02
468           	1.684225e-02	1.420798e-04	1.568903e-02
469           	1.876784e-02	1.430440e-04	1.805067e-02
470           	1.981796e-02	1.440128e-04	1.949729e-02
471           	2.006823e-02	1.449681e-04	1.979796e-02
472           	1.928497e-02	1.459150e-04	1.907790e-02
473           	1.816610e-02	1.468583e-04	1.813854e-02
474           	1.665291e-02	1.477942e-04	1.705336e-02
475           	1.503562e-02	1.487195e-04	1.613628e-02
476           	1.351741e-02	1.496321e-04	1.513278e-02
477           	1.204620e-02	1.505318e-04	1.426794e-02
478           	1.071599e-02	1.514183e-04	1.345674e-02
479           	9.743921e-03	1.522984e-04	1.267674e-02
480           	9.401292e-03	1.532326e-04	1.195118e-02
481           	9.241307e-03	1.541644e-04	1.124497e-02
482           	8.750951e-03	1.550853e-04	1.044613e-02
483           	7.949271e-03	1.559951e-04	9.826745e-03
484           	7.634494e-03	1.568939e-04	9.206362e-03
485           	6.940845e-03	1.577817e-04	8.549249e-03
486           	6.367462e-03	1.586590e-04	8.276199e-03
487           	6.028666e-03	1.595261e-04	7.800540e-03
488           	5.810458e-03	1.603827e-04	7.529724e-03
489           	5.462884e-03	1.612293e-04	7.140889e-03
490           	5.304420e-03	1.620661e-04	7.015923e-03
491           	5.253023e-03	1.628936e-04	6.464189e-03
492           	7.206078e-03	1.637141e-04	7.244166e-03
493           	9.545074e-03	1.645277e-04	8.291682e-03
494           	1.255307e-02	1.653356e-04	9.834690e-03
495           	1.535419e-02	1.661394e-04	1.199705e-02
496           	1.816167e-02	1.669464e-04	1.399694e-02
497           	2.085907e-02	1.677536e-04	1.583706e-02
498           	2.286338e-02	1.685717e-04	1.768030e-02
499           	2.275384e-02	1.694316e-04	1.801413e-02
500           	2.215546e-02	1.703072e-04	1.774055e-02
501           	1.997949e-02	1.711900e-04	1.721378e-02
502           	1.883560e-02	1.720721e-04	1.658982e-02
503           	1.644737e-02	1.729515e-04	1.513288e-02
504           	1.482258e-02	1.738266e-04	1.415920e-02
505           	1.266337e-02	1.746974e-04	1.322379e-02
506           	1.173868e-02	1.755619e-04	1.223198e-02
507           	1.050529e-02	1.764203e-04	1.164272e-02
508           	1.015526e-02	1.772726e-04	1.138852e-02
509           	9.535562e-03	1.781126e-04	1.062149e-02
510           	8.924198e-03	1.789472e-04	1.032183e-02
511           	8.345508e-03	1.797685e-04	9.518488e-03
512           	7.993181e-03	1.805840e-04	9.119243e-03
513           	7.231568e-03	1.813868e-04	8.571547e-03
514           	6.901832e-03	1.821829e-04	8.377574e-03
515           	6.147185e-03	1.829659e-04	8.061141e-03
516           	5.692431e-03	1.837414e-04	7.861694e-03
517           	5.537947e-03	1.845040e-04	7.480211e-03
518           	5.322413e-03	1.852593e-04	7.250699e-03
519           	5.013888e-03	1.860004e-04	6.754236e-03
520           	4.868097e-03	1.867490e-04	6.617352e-03
521           	4.375943e-03	1.875252e-04	6.387311e-03
522           	4.348633e-03	1.882941e-04	6.199768e-03
523           	4.106188e-03	1.890491e-04	6.088306e-03
524           	4.219234e-03	1.897959e-04	5.965419e-03
525           	4.920477e-03	1.905292e-04	6.176987e-03
526           	8.225602e-03	1.912563e-04	7.165321e-03
527           	1.172765e-02	1.919710e-04	9.066796e-03
528           	1.511018e-02	1.926781e-04	1.110508e-02
529           	1.834795e-02	1.933729e-04	1.326096e-02
530           	2.140835e-02	1.940635e-04	1.481237e-02
531           	2.394812e-02	1.947442e-04	1.644144e-02
532           	2.445401e-02	1.954197e-04	1.798827e-02
533           	2.313732e-02	1.960848e-04	1.729308e-02
534           	2.143858e-02	1.967453e-04	1.648138e-02
535           	1.932728e-02	1.973950e-04	1.520826e-02
536           	1.777991e-02	1.980394e-04	1.435721e-02
537           	1.586219e-02	1.986725e-04	1.323985e-02
538           	1.323182e-02	1.993008e-04	1.198572e-02
539           	1.166080e-02	1.999285e-04	1.122905e-02
540           	1.069452e-02	2.005759e-04	1.057295e-02
541           	9.811012e-03	2.012099e-04	9.968470e-03
542           	9.574975e-03	2.018375e-04	9.369370e-03
543           	8.622838e-03	2.024519e-04	8.980762e-03
544           	8.014775e-03	2.030598e-04	8.764980e-03
545           	7.273823e-03	2.036544e-04	8.201160e-03
546           	6.708275e-03	2.042420e-04	7.969192e-03
547           	5.946485e-03	2.048157e-04	7.525708e-03
548           	5.699616e-03	2.053830e-04	7.430804e-03
549           	5.239186e-03	2.059368e-04	7.061103e-03
550           	5.243722e-03	2.064836e-04	7.119080e-03
551           	4.825046e-03	2.070161e-04	7.088192e-03
552           	4.371050e-03	2.075419e-04	6.575184e-03
553           	4.333452e-03	2.080539e-04	6.435980e-03