/*--------------------------------*- C++ -*----------------------------------*\
  =========                 |
  \\      /  F ield         | OpenFOAM: The Open Source CFD Toolbox
   \\    /   O peration     | Website:  https://openfoam.org
    \\  /    A nd           | Version:  10
     \\/     M anipulation  |
\*---------------------------------------------------------------------------*/
FoamFile
{
    format      ascii;
    class       volScalarField;
    location    "2500";
    object      k;
}
// * * * * * * * * * * * * * * * * * * * * * * * * * * * * * * * * * * * * * //

dimensions      [0 2 -2 0 0 0 0];

internalField   nonuniform List<scalar> 
400
(
1.33942e-07
1.34073e-07
1.34222e-07
1.3421e-07
4.01841e-06
4.02232e-06
4.02681e-06
4.02645e-06
2.84407e-05
2.84685e-05
2.85003e-05
2.84977e-05
0.000103042
0.000103144
0.000103259
0.000103249
0.000263664
0.00026393
0.000264219
0.000264194
0.000543882
0.000544442
0.000545024
0.000544969
0.000961524
0.000962523
0.000963507
0.000963404
0.00150572
0.00150725
0.00150869
0.00150852
0.00213707
0.00213911
0.00214096
0.00214073
0.00280371
0.00280608
0.00280824
0.00280796
0.0034599
0.00346234
0.0034647
0.00346438
0.00407515
0.00407742
0.00407986
0.00407952
0.00463408
0.00463602
0.00463843
0.00463808
0.00513286
0.00513459
0.0051369
0.00513649
0.00557391
0.0055754
0.00557756
0.00557708
0.00596004
0.00596131
0.00596327
0.00596267
0.00629516
0.00629623
0.00629793
0.0062972
0.00658366
0.00658458
0.00658598
0.00658508
0.00683002
0.00683084
0.00683187
0.00683084
0.00703848
0.00703929
0.00703986
0.00703879
0.00721296
0.00721388
0.0072139
0.00721293
0.00735706
0.00735822
0.00735754
0.00735678
0.00747395
0.00747532
0.00747408
0.00747349
0.00756648
0.00756802
0.00756634
0.00756587
0.00763722
0.00763887
0.00763688
0.00763646
0.00768841
0.00769013
0.00768801
0.00768747
0.00772213
0.00772384
0.00772182
0.0077209
0.00774017
0.00774186
0.00773991
0.00773886
0.00774422
0.00774583
0.00774399
0.00774298
0.00773577
0.00773726
0.00773559
0.00773479
0.00771615
0.00771752
0.00771608
0.00771572
0.00768664
0.00768785
0.00768667
0.00768661
0.00764833
0.00764936
0.00764843
0.00764865
0.00760225
0.00760309
0.00760238
0.00760292
0.00754932
0.00754995
0.00754944
0.00755034
0.00749038
0.00749078
0.00749045
0.00749179
0.0074262
0.00742632
0.00742619
0.00742802
0.00735746
0.00735726
0.00735734
0.00735976
0.0072848
0.00728418
0.00728457
0.00728763
0.00720881
0.00720861
0.00720839
0.00721221
0.00713008
0.00713013
0.00712946
0.00713402
0.0070491
0.00704927
0.00704829
0.0070535
0.00696627
0.00696649
0.00696531
0.00697106
0.00688192
0.00688215
0.00688085
0.00688705
0.00679632
0.00679657
0.00679523
0.00680178
0.00670972
0.00670996
0.00670867
0.00671549
0.00662231
0.00662248
0.00662134
0.0066284
0.0065342
0.00653422
0.0065334
0.00654069
0.0064454
0.00644518
0.00644495
0.00645248
0.00635572
0.00635529
0.0063561
0.00636387
0.00626627
0.0062657
0.00626682
0.00627493
0.00617673
0.00617692
0.00617702
0.00618571
0.00608697
0.00608747
0.00608668
0.00609621
0.00599691
0.00599755
0.00599597
0.00600636
0.00590646
0.00590717
0.00590498
0.00591611
0.00581555
0.0058163
0.00581379
0.00582534
0.00572407
0.00572486
0.00572234
0.00573395
0.00563192
0.00563276
0.0056305
0.00564184
0.00553896
0.00553988
0.00553801
0.00554892
0.00544505
0.0054461
0.00544462
0.00545507
0.00535005
0.00535131
0.00535007
0.00536016
0.0052538
0.00525532
0.00525427
0.00526401
0.00515616
0.00515794
0.00515729
0.0051664
0.00505703
0.00505876
0.00505932
0.00506708
0.00495638
0.00495704
0.00495908
0.00496603
0.00485425
0.00485531
0.00485639
0.00486304
0.00475108
0.00475135
0.00475134
0.0047579
0.00464436
0.00464457
0.00464382
0.00465048
0.00453452
0.00453504
0.00453366
0.00454064
0.00442203
0.0044228
0.00442083
0.00442828
0.00430705
0.00430796
0.0043055
0.00431336
0.00418962
0.00419058
0.00418777
0.00419588
0.00406984
0.00407077
0.00406779
0.00407592
0.00394786
0.00394872
0.00394571
0.0039537
0.00382402
0.00382476
0.00382184
0.00382958
0.00369883
0.00369934
0.00369667
0.00370413
0.00357306
0.00357313
0.00357099
0.00357814
0.00344763
0.003447
0.00344575
0.00345262
0.00332336
0.00332165
0.00332198
0.00332854
0.00320026
0.00319694
0.00320024
0.00320637
0.00307885
0.0030741
0.00307898
0.00308495
0.00295712
0.00295155
0.00295717
0.00296306
0.00283465
0.00282895
0.00283474
0.00284039
0.00271127
0.00270586
0.00271169
0.00271689
0.002587
0.00258236
0.00258806
0.00259259
0.00246193
0.00245889
0.00246377
0.00246758
0.00233631
0.00233561
0.0023388
0.00234204
0.00221066
0.00221215
0.00221352
0.00221626
0.00208584
0.00208796
0.00208835
0.00209067
0.00196324
0.00196391
0.00196382
0.00196584
0.00184096
0.00184115
0.00184078
0.00184253
0.00172066
0.00172069
0.00172024
0.00172174
0.00160398
0.00160401
0.0016035
0.0016048
0.00149267
0.00149278
0.0014922
0.00149333
0.00138876
0.00138898
0.00138835
0.00138937
0.00129466
0.00129503
0.00129427
0.00129535
0.00121304
0.00121373
0.00121259
0.00121417
0.0011465
0.00114816
0.00114584
0.00114923
0.00110283
0.00110092
0.00110225
0.00110355
0.00108044
0.00107949
0.00107999
0.0010808
)
;

boundaryField
{
    inlet
    {
        type            cyclic;
    }
    outlet
    {
        type            cyclic;
    }
    fixedWalls-bottom
    {
        type            kqRWallFunction;
        value           nonuniform List<scalar> 4(1.33942e-07 1.34073e-07 1.34222e-07 1.3421e-07);
    }
    fixedWalls-top
    {
        type            symmetry;
    }
    frontAndBack
    {
        type            empty;
    }
}


// ************************************************************************* //
