/*--------------------------------*- C++ -*----------------------------------*\
  =========                 |
  \\      /  F ield         | OpenFOAM: The Open Source CFD Toolbox
   \\    /   O peration     | Website:  https://openfoam.org
    \\  /    A nd           | Version:  10
     \\/     M anipulation  |
\*---------------------------------------------------------------------------*/
FoamFile
{
    format      ascii;
    class       volScalarField;
    location    "2500";
    object      nut;
}
// * * * * * * * * * * * * * * * * * * * * * * * * * * * * * * * * * * * * * //

dimensions      [0 2 -1 0 0 0 0];

internalField   nonuniform List<scalar> 
400
(
2.33918e-11
2.34146e-11
2.34407e-11
2.34386e-11
4.10143e-09
4.10542e-09
4.11e-09
4.10964e-09
8.60406e-08
8.61247e-08
8.62208e-08
8.6213e-08
6.56253e-07
6.56908e-07
6.5764e-07
6.57578e-07
2.89077e-06
2.89382e-06
2.89703e-06
2.89672e-06
8.96364e-06
8.9742e-06
8.984e-06
8.9829e-06
2.16039e-05
2.16332e-05
2.16562e-05
2.16531e-05
4.3007e-05
4.30733e-05
4.3117e-05
4.311e-05
7.39597e-05
7.40844e-05
7.41545e-05
7.41415e-05
0.000113888
0.000114087
0.000114186
0.000114166
0.000161528
0.000161803
0.000161929
0.000161901
0.000215534
0.000215872
0.000216021
0.000215987
0.000273643
0.000273747
0.000273925
0.000273931
0.000333079
0.00033314
0.000333324
0.000333337
0.000396383
0.000396428
0.00039661
0.000396618
0.00046365
0.000463684
0.000463859
0.000463852
0.000534641
0.000534668
0.000534831
0.000534796
0.000609067
0.000609091
0.000609237
0.00060916
0.000686613
0.000686641
0.000686762
0.000686636
0.00076685
0.000766896
0.000766977
0.000766809
0.000849046
0.000849139
0.000849148
0.000848961
0.000933105
0.000933277
0.000933174
0.000932994
0.00101865
0.00101891
0.0010187
0.00101853
0.00110524
0.00110558
0.00110527
0.00110512
0.0011924
0.00119282
0.00119243
0.00119228
0.00127966
0.00128015
0.00127971
0.00127952
0.00136656
0.0013671
0.00136666
0.00136638
0.00145267
0.00145324
0.0014528
0.00145246
0.00153756
0.00153813
0.00153771
0.00153736
0.00162086
0.00162139
0.00162101
0.0016207
0.00170219
0.00170265
0.00170235
0.00170212
0.00178122
0.00178159
0.00178138
0.00178121
0.00185766
0.00185792
0.0018578
0.00185768
0.00193121
0.00193138
0.00193133
0.00193129
0.00200166
0.00200173
0.00200175
0.00200181
0.00206878
0.00206879
0.00206886
0.00206907
0.00213244
0.00213238
0.00213251
0.0021329
0.00219251
0.00219235
0.00219257
0.00219319
0.00224889
0.00224864
0.00224895
0.00224984
0.00230154
0.00230149
0.00230154
0.00230276
0.00235046
0.0023505
0.00235031
0.00235189
0.00239562
0.0023956
0.00239524
0.00239716
0.00243691
0.0024368
0.00243629
0.00243853
0.00247428
0.00247411
0.00247351
0.00247599
0.00250769
0.00250755
0.00250687
0.00250951
0.00253711
0.00253708
0.00253635
0.00253913
0.00256257
0.0025627
0.00256194
0.00256489
0.00258423
0.0025844
0.00258373
0.00258685
0.00260224
0.00260227
0.00260185
0.00260511
0.00261656
0.00261635
0.0026164
0.00261978
0.00262757
0.00262717
0.00262745
0.00263098
0.00263525
0.00263514
0.0026351
0.00263887
0.00263979
0.00263986
0.00263949
0.0026436
0.0026414
0.00264162
0.00264091
0.00264537
0.00264027
0.00264062
0.00263964
0.00264438
0.00263658
0.00263707
0.00263593
0.00264081
0.00263051
0.00263116
0.00262998
0.00263485
0.00262225
0.00262299
0.0026219
0.00262669
0.00261199
0.00261266
0.00261175
0.00261652
0.00259987
0.0026003
0.00259966
0.00260452
0.00258604
0.00258621
0.0025859
0.00259085
0.00257065
0.00257082
0.0025708
0.00257567
0.00255397
0.00255448
0.0025546
0.00255913
0.00253628
0.0025371
0.00253744
0.00254141
0.00251788
0.00251824
0.002519
0.00252274
0.00249899
0.00249947
0.00249968
0.00250323
0.00248002
0.00248006
0.0024798
0.00248304
0.00245974
0.00245989
0.00245937
0.00246239
0.00243871
0.00243923
0.00243839
0.0024416
0.00241785
0.0024186
0.00241726
0.00242102
0.00239789
0.00239865
0.00239683
0.00240115
0.0023796
0.00238005
0.002378
0.00238272
0.00236397
0.00236391
0.00236189
0.00236675
0.00235226
0.00235204
0.00235008
0.0023547
0.00234615
0.00234633
0.00234453
0.00234845
0.0023479
0.00234865
0.00234746
0.00235022
0.00235984
0.00236111
0.00236081
0.00236199
0.00238288
0.00238447
0.00238489
0.00238415
0.00241248
0.00241299
0.00241431
0.00241207
0.00242789
0.0024244
0.00242893
0.00242825
0.00237429
0.00236834
0.00237402
0.00238672
0.00231723
0.00231079
0.00231657
0.00232943
0.00225715
0.00225163
0.00225629
0.00226926
0.00219457
0.00218881
0.00219376
0.00220601
0.00212922
0.00212438
0.00212818
0.0021399
0.00206028
0.00205677
0.00206044
0.00207089
0.00198838
0.00198627
0.00198999
0.00199947
0.00191444
0.00191455
0.00191628
0.00192588
0.00183909
0.0018405
0.00183947
0.00185035
0.00176339
0.00176312
0.00176177
0.00177261
0.00168533
0.00168424
0.00168316
0.00169324
0.00160646
0.00160413
0.00160404
0.00161322
0.00152905
0.00152839
0.00152418
0.00153424
0.00145234
0.00145271
0.0014474
0.0014575
0.00137939
0.00138056
0.00137476
0.00138494
0.00131214
0.00131422
0.00130822
0.00131901
0.00125302
0.00125623
0.00124978
0.00126286
0.0012039
0.00120933
0.00120167
0.00122024
0.00117051
0.00117562
0.00117246
0.00119505
0.00116128
0.00116567
0.00116552
0.00118646
)
;

boundaryField
{
    inlet
    {
        type            cyclic;
    }
    outlet
    {
        type            cyclic;
    }
    fixedWalls-bottom
    {
        type            nutkWallFunction;
        Cmu             0.09;
        kappa           0.41;
        E               9.8;
        value           uniform 0;
    }
    fixedWalls-top
    {
        type            symmetry;
    }
    frontAndBack
    {
        type            empty;
    }
}


// ************************************************************************* //
