/*--------------------------------*- C++ -*----------------------------------*\
  =========                 |
  \\      /  F ield         | OpenFOAM: The Open Source CFD Toolbox
   \\    /   O peration     | Website:  https://openfoam.org
    \\  /    A nd           | Version:  10
     \\/     M anipulation  |
\*---------------------------------------------------------------------------*/
FoamFile
{
    format      ascii;
    class       volScalarField;
    location    "2500";
    object      omega;
}
// * * * * * * * * * * * * * * * * * * * * * * * * * * * * * * * * * * * * * //

dimensions      [0 0 -1 0 0 0 0];

internalField   nonuniform List<scalar> 
400
(
5726.03
5726.03
5726.03
5726.03
979.759
979.759
979.759
979.759
330.55
330.55
330.55
330.55
157.016
157.014
157.014
157.014
91.209
91.2044
91.2036
91.2044
60.6765
60.6675
60.6661
60.6674
44.5069
44.4929
44.4911
44.4928
35.011
34.9927
34.9905
34.9924
28.8951
28.8739
28.8716
28.8735
24.618
24.596
24.5937
24.5955
21.4198
21.3986
21.3965
21.3981
18.9072
18.8881
18.8864
18.8878
16.8611
16.8449
16.8437
16.8447
15.1475
15.1345
15.1337
15.1345
13.6818
13.6721
13.6718
13.6722
12.4097
12.4033
12.4027
12.4037
11.2953
11.2906
11.2906
11.2926
10.3121
10.3086
10.3088
10.312
9.43965
9.4377
9.43815
9.44228
8.66362
8.66281
8.66351
8.66848
7.97189
7.97187
7.97278
7.97851
7.35459
7.35498
7.35606
7.36236
6.80357
6.80383
6.80512
6.81175
6.31105
6.31158
6.31284
6.31958
5.87112
5.87184
5.87301
5.87967
5.47822
5.47905
5.4801
5.48652
5.12736
5.12823
5.12918
5.1352
4.81402
4.81489
4.81572
4.82125
4.53411
4.53493
4.53566
4.54061
4.28388
4.28463
4.28525
4.28959
4.05993
4.06058
4.06115
4.06482
3.85919
3.8597
3.86029
3.86324
3.67885
3.67923
3.67993
3.68209
3.51645
3.51678
3.51761
3.51884
3.36977
3.3701
3.37113
3.37129
3.2368
3.23701
3.23804
3.23762
3.11563
3.11591
3.11688
3.11615
3.00486
3.00547
3.00619
3.00531
2.90356
2.90429
2.90477
2.90371
2.81051
2.81127
2.81151
2.81027
2.72467
2.72546
2.72546
2.72404
2.6452
2.6459
2.64581
2.6442
2.5714
2.572
2.57185
2.57005
2.50266
2.50318
2.50299
2.50102
2.43847
2.43893
2.4387
2.43657
2.37837
2.37882
2.37853
2.37625
2.322
2.32241
2.32211
2.31967
2.26901
2.26938
2.26906
2.26647
2.21907
2.21944
2.21907
2.21635
2.17193
2.17228
2.17188
2.16902
2.1273
2.12765
2.12722
2.12424
2.08494
2.08529
2.08485
2.08178
2.04466
2.04499
2.04458
2.04142
2.0063
2.00657
2.00619
2.00296
1.96959
1.96989
1.96947
1.96626
1.93436
1.93476
1.93428
1.93112
1.90063
1.90099
1.90051
1.89737
1.86815
1.86848
1.86804
1.86486
1.83679
1.83713
1.8367
1.83347
1.80643
1.8068
1.80637
1.80308
1.77698
1.7774
1.77696
1.77361
1.74835
1.74881
1.74839
1.74494
1.72053
1.72088
1.72058
1.71701
1.69324
1.69367
1.69337
1.68977
1.66661
1.66709
1.66675
1.66315
1.64051
1.64109
1.64066
1.63708
1.61505
1.61542
1.61516
1.61149
1.59
1.59042
1.59004
1.58638
1.56543
1.56581
1.56535
1.56173
1.54125
1.54159
1.54107
1.5375
1.51745
1.51772
1.51718
1.51362
1.49396
1.4942
1.49365
1.49008
1.47079
1.47097
1.47045
1.46683
1.4479
1.44805
1.44761
1.44386
1.42531
1.42544
1.42512
1.42118
1.40306
1.40318
1.40299
1.39883
1.38119
1.38134
1.38118
1.37688
1.35974
1.35997
1.35971
1.35539
1.3386
1.33903
1.33854
1.33425
1.31747
1.31865
1.31755
1.31331
1.29675
1.298
1.29695
1.29255
1.27615
1.27729
1.27653
1.27201
1.25585
1.2564
1.25637
1.25168
1.23545
1.23622
1.23609
1.23159
1.215
1.21558
1.21609
1.21155
1.19495
1.19551
1.19575
1.19155
1.17498
1.17587
1.17528
1.17133
1.15473
1.15544
1.15511
1.15078
1.13417
1.13445
1.1353
1.12988
1.11334
1.11388
1.11469
1.10901
1.09234
1.09316
1.09364
1.08817
1.07109
1.07266
1.07244
1.06727
1.049
1.04948
1.05204
1.04599
1.02777
1.02758
1.03095
1.02458
1.0068
1.0061
1.00988
1.00319
0.986681
0.9854
0.98934
0.982061
0.968092
0.966165
0.970239
0.961443
0.952324
0.949421
0.953539
0.941806
0.942173
0.936457
0.940121
0.923432
0.930382
0.926071
0.926615
0.910942
)
;

boundaryField
{
    inlet
    {
        type            cyclic;
    }
    outlet
    {
        type            cyclic;
    }
    fixedWalls-bottom
    {
        beta1           0.075;
        blended         0;
        type            omegaWallFunction;
        value           uniform 5726.03;
    }
    fixedWalls-top
    {
        type            symmetry;
    }
    frontAndBack
    {
        type            empty;
    }
}


// ************************************************************************* //
