/*--------------------------------*- C++ -*----------------------------------*\
  =========                 |
  \\      /  F ield         | OpenFOAM: The Open Source CFD Toolbox
   \\    /   O peration     | Website:  https://openfoam.org
    \\  /    A nd           | Version:  10
     \\/     M anipulation  |
\*---------------------------------------------------------------------------*/
FoamFile
{
    format      ascii;
    class       volScalarField;
    location    "2500";
    object      omega;
}
// * * * * * * * * * * * * * * * * * * * * * * * * * * * * * * * * * * * * * //

dimensions      [0 0 -1 0 0 0 0];

internalField   nonuniform List<scalar> 
400
(
22263.7
22263.7
22263.7
22263.7
3807.19
3807.2
3807.21
3807.24
1280.86
1280.86
1280.86
1280.86
601.719
601.72
601.721
601.722
340.39
340.39
340.39
340.391
216.005
216.005
216.006
216.006
148.066
148.066
148.066
148.067
107.251
107.251
107.251
107.251
80.9725
80.9727
80.9727
80.973
63.1466
63.1467
63.1467
63.147
50.5533
50.5534
50.5533
50.5536
41.3653
41.3654
41.3653
41.3655
34.4851
34.4851
34.485
34.4852
29.222
29.222
29.2218
29.2219
25.1242
25.1242
25.1239
25.124
21.8863
21.8863
21.886
21.886
19.296
19.2959
19.2956
19.2955
17.2016
17.2015
17.2011
17.2009
15.4929
15.4928
15.4923
15.492
14.0878
14.0876
14.087
14.0867
12.9242
12.924
12.9234
12.923
11.9547
11.9545
11.9538
11.9533
11.1423
11.142
11.1413
11.1407
10.4577
10.4575
10.4568
10.456
9.87795
9.87767
9.87694
9.87606
9.38428
9.384
9.38329
9.38227
8.96167
8.96139
8.9607
8.95955
8.59783
8.59756
8.5969
8.59563
8.28268
8.28242
8.28178
8.28043
8.00791
8.00766
8.00704
8.00562
7.76664
7.76642
7.76582
7.76435
7.55317
7.55296
7.55239
7.55089
7.36275
7.36256
7.362
7.3605
7.19141
7.19123
7.1907
7.1892
7.03584
7.03567
7.03517
7.03368
6.89327
6.89311
6.89264
6.89117
6.76137
6.76122
6.76078
6.75934
6.6382
6.63805
6.63765
6.63624
6.52212
6.52198
6.52161
6.52024
6.41175
6.41162
6.41128
6.40996
6.30592
6.3058
6.3055
6.30422
6.20365
6.20354
6.20326
6.20204
6.10408
6.10398
6.10372
6.10257
6.00648
6.00639
6.00614
6.00505
5.91017
5.91009
5.90987
5.90884
5.81458
5.81451
5.81431
5.81333
5.71915
5.71908
5.71891
5.71799
5.62335
5.62329
5.62313
5.62228
5.52667
5.52663
5.52647
5.5257
5.42866
5.42865
5.42846
5.42777
5.32891
5.32894
5.32872
5.32812
5.22717
5.22719
5.22698
5.22645
5.12331
5.12331
5.12313
5.12264
5.01735
5.01734
5.01719
5.01675
4.90951
4.90951
4.90937
4.90898
4.80013
4.80012
4.80002
4.79966
4.68962
4.68959
4.68955
4.68921
4.57845
4.5784
4.57838
4.57806
4.46698
4.46694
4.46692
4.46664
4.35562
4.35559
4.35557
4.35533
4.24467
4.24466
4.24464
4.24443
4.13439
4.1344
4.13437
4.1342
4.02498
4.02499
4.02495
4.0248
3.9165
3.91652
3.91649
3.91634
3.80903
3.80903
3.80901
3.80887
3.70251
3.70252
3.70249
3.70238
3.59691
3.59691
3.59689
3.59678
3.49212
3.4921
3.49208
3.49197
3.38796
3.38794
3.3879
3.3878
3.28426
3.28426
3.28416
3.28407
3.1808
3.18076
3.18061
3.18057
3.07731
3.07721
3.07697
3.07702
2.97351
2.97326
2.97296
2.97314
2.86914
2.86854
2.86832
2.86866
2.76428
2.76345
2.7631
2.7633
2.6612
2.66038
2.66
2.65991
2.56044
2.55976
2.55965
2.55925
2.4622
2.46179
2.46177
2.46111
2.36633
2.36599
2.36599
2.36521
2.27247
2.2721
2.27214
2.27122
2.18034
2.1799
2.17998
2.1789
2.08988
2.08919
2.08935
2.08805
2.00023
2.00005
1.99998
1.99865
1.91249
1.91205
1.91203
1.91063
1.82637
1.82572
1.8256
1.82401
1.74099
1.74149
1.74038
1.73907
1.65806
1.65768
1.65742
1.65584
1.57712
1.57686
1.57633
1.57468
1.49848
1.49917
1.49803
1.49582
1.42282
1.42347
1.42262
1.41991
1.35036
1.3515
1.34911
1.34779
1.28201
1.28316
1.28036
1.27936
1.21825
1.21945
1.21644
1.21545
1.15976
1.16101
1.15786
1.15682
1.10726
1.10857
1.10528
1.1042
1.06151
1.06287
1.05945
1.05836
1.0233
1.02468
1.02117
1.02004
0.993404
0.994777
0.991236
0.989973
0.972611
0.973839
0.970429
0.968823
0.96141
0.962185
0.959218
0.956926
)
;

boundaryField
{
    inlet
    {
        type            cyclic;
    }
    outlet
    {
        type            cyclic;
    }
    fixedWalls-bottom
    {
        beta1           0.075;
        blended         0;
        type            omegaWallFunction;
        value           uniform 22263.7;
    }
    fixedWalls-top
    {
        type            symmetry;
    }
    frontAndBack
    {
        type            empty;
    }
}


// ************************************************************************* //
