/*--------------------------------*- C++ -*----------------------------------*\
  =========                 |
  \\      /  F ield         | OpenFOAM: The Open Source CFD Toolbox
   \\    /   O peration     | Website:  https://openfoam.org
    \\  /    A nd           | Version:  10
     \\/     M anipulation  |
\*---------------------------------------------------------------------------*/
FoamFile
{
    format      ascii;
    class       volSymmTensorField;
    location    "2500";
    object      R;
}
// * * * * * * * * * * * * * * * * * * * * * * * * * * * * * * * * * * * * * //

dimensions      [0 2 -2 0 0 0 0];

internalField   nonuniform List<symmTensor> 
400
(
(1.54605e-09 -3.98623e-13 -0 1.54605e-09 -0 1.54605e-09)
(1.54591e-09 -3.98587e-13 -0 1.54591e-09 -0 1.54591e-09)
(1.54592e-09 -3.98591e-13 -0 1.54592e-09 -0 1.54592e-09)
(1.54606e-09 -3.98625e-13 -0 1.54606e-09 -0 1.54606e-09)
(4.63858e-08 -6.96136e-11 -0 4.63858e-08 -0 4.63858e-08)
(4.63816e-08 -6.96073e-11 -0 4.63816e-08 -0 4.63816e-08)
(4.63818e-08 -6.96077e-11 -0 4.63818e-08 -0 4.63818e-08)
(4.6386e-08 -6.96131e-11 -0 4.6386e-08 -0 4.6386e-08)
(3.28443e-07 -1.45817e-09 -0 3.28443e-07 -0 3.28443e-07)
(3.28413e-07 -1.45804e-09 -0 3.28413e-07 -0 3.28413e-07)
(3.28416e-07 -1.45805e-09 -0 3.28416e-07 -0 3.28416e-07)
(3.28447e-07 -1.45818e-09 -0 3.28447e-07 -0 3.28447e-07)
(1.19401e-06 -1.12293e-08 -0 1.19401e-06 -0 1.19401e-06)
(1.1939e-06 -1.12283e-08 -0 1.1939e-06 -0 1.1939e-06)
(1.19391e-06 -1.12284e-08 -0 1.19391e-06 -0 1.19391e-06)
(1.19403e-06 -1.12295e-08 -0 1.19403e-06 -0 1.19403e-06)
(3.08925e-06 -5.11046e-08 -0 3.08925e-06 -0 3.08925e-06)
(3.08897e-06 -5.10999e-08 -0 3.08897e-06 -0 3.08897e-06)
(3.089e-06 -5.11005e-08 -0 3.089e-06 -0 3.089e-06)
(3.0893e-06 -5.11052e-08 -0 3.0893e-06 -0 3.0893e-06)
(6.54118e-06 -1.69655e-07 -0 6.54118e-06 -0 6.54118e-06)
(6.54059e-06 -1.69639e-07 -0 6.54059e-06 -0 6.54059e-06)
(6.54065e-06 -1.69641e-07 -0 6.54065e-06 -0 6.54065e-06)
(6.54129e-06 -1.69657e-07 -0 6.54129e-06 -0 6.54129e-06)
(1.21515e-05 -4.5738e-07 -0 1.21515e-05 -0 1.21515e-05)
(1.21504e-05 -4.57338e-07 -0 1.21504e-05 -0 1.21504e-05)
(1.21505e-05 -4.57343e-07 -0 1.21505e-05 -0 1.21505e-05)
(1.21517e-05 -4.57386e-07 -0 1.21517e-05 -0 1.21517e-05)
(2.05928e-05 -1.06433e-06 -0 2.05928e-05 -0 2.05928e-05)
(2.0591e-05 -1.06423e-06 -0 2.0591e-05 -0 2.0591e-05)
(2.05912e-05 -1.06424e-06 -0 2.05912e-05 -0 2.05912e-05)
(2.05932e-05 -1.06434e-06 -0 2.05932e-05 -0 2.05932e-05)
(3.26041e-05 -2.21949e-06 -0 3.26041e-05 -0 3.26041e-05)
(3.26012e-05 -2.21928e-06 -0 3.26012e-05 -0 3.26012e-05)
(3.26015e-05 -2.21931e-06 -0 3.26015e-05 -0 3.26015e-05)
(3.26048e-05 -2.21952e-06 -0 3.26048e-05 -0 3.26048e-05)
(4.89821e-05 -4.25054e-06 -0 4.89821e-05 -0 4.89821e-05)
(4.89777e-05 -4.25014e-06 -0 4.89777e-05 -0 4.89777e-05)
(4.89783e-05 -4.2502e-06 -0 4.89783e-05 -0 4.89783e-05)
(4.89833e-05 -4.2506e-06 -0 4.89833e-05 -0 4.89833e-05)
(7.05682e-05 -7.60135e-06 -0 7.05682e-05 -0 7.05682e-05)
(7.05619e-05 -7.60064e-06 -0 7.05619e-05 -0 7.05619e-05)
(7.05628e-05 -7.60075e-06 -0 7.05628e-05 -0 7.05628e-05)
(7.057e-05 -7.60149e-06 -0 7.057e-05 -0 7.057e-05)
(9.82273e-05 -1.28437e-05 -0 9.82273e-05 -0 9.82273e-05)
(9.82186e-05 -1.28425e-05 -0 9.82186e-05 -0 9.82186e-05)
(9.82199e-05 -1.28427e-05 -0 9.82199e-05 -0 9.82199e-05)
(9.82301e-05 -1.2844e-05 -0 9.82301e-05 -0 9.82301e-05)
(0.000132818 -2.06781e-05 -0 0.000132818 -0 0.000132818)
(0.000132807 -2.06762e-05 -0 0.000132807 -0 0.000132807)
(0.000132809 -2.06766e-05 -0 0.000132809 -0 0.000132809)
(0.000132823 -2.06787e-05 -0 0.000132823 -0 0.000132823)
(0.000175155 -3.19184e-05 -0 0.000175155 -0 0.000175155)
(0.00017514 -3.19155e-05 -0 0.00017514 -0 0.00017514)
(0.000175142 -3.19161e-05 -0 0.000175142 -0 0.000175142)
(0.000175161 -3.19195e-05 -0 0.000175161 -0 0.000175161)
(0.000225955 -4.74541e-05 -0 0.000225955 -0 0.000225955)
(0.000225936 -4.74499e-05 -0 0.000225936 -0 0.000225936)
(0.000225939 -4.7451e-05 -0 0.000225939 -0 0.000225939)
(0.000225964 -4.74562e-05 -0 0.000225964 -0 0.000225964)
(0.000285785 -6.81884e-05 -0 0.000285785 -0 0.000285785)
(0.000285761 -6.81825e-05 -0 0.000285761 -0 0.000285761)
(0.000285765 -6.81844e-05 -0 0.000285765 -0 0.000285765)
(0.000285797 -6.81921e-05 -0 0.000285797 -0 0.000285797)
(0.000354997 -9.49516e-05 -0 0.000354997 -0 0.000354997)
(0.000354967 -9.49437e-05 -0 0.000354967 -0 0.000354967)
(0.000354973 -9.49469e-05 -0 0.000354973 -0 0.000354973)
(0.000355013 -9.49581e-05 -0 0.000355013 -0 0.000355013)
(0.000433672 -0.000128399 -0 0.000433672 -0 0.000433672)
(0.000433636 -0.000128389 -0 0.000433636 -0 0.000433636)
(0.000433643 -0.000128394 -0 0.000433643 -0 0.000433643)
(0.000433692 -0.00012841 -0 0.000433692 -0 0.000433692)
(0.000521573 -0.000168906 -0 0.000521573 -0 0.000521573)
(0.000521531 -0.000168894 -0 0.000521531 -0 0.000521531)
(0.000521539 -0.000168901 -0 0.000521539 -0 0.000521539)
(0.000521599 -0.000168924 -0 0.000521599 -0 0.000521599)
(0.000618123 -0.000216483 -0 0.000618123 -0 0.000618123)
(0.000618074 -0.000216468 -0 0.000618074 -0 0.000618074)
(0.000618084 -0.00021648 -0 0.000618084 -0 0.000618084)
(0.000618155 -0.00021651 -0 0.000618155 -0 0.000618155)
(0.000722403 -0.000270725 -0 0.000722403 -0 0.000722403)
(0.000722348 -0.000270708 -0 0.000722348 -0 0.000722348)
(0.000722359 -0.000270724 -0 0.000722359 -0 0.000722359)
(0.000722443 -0.000270764 -0 0.000722443 -0 0.000722443)
(0.000833193 -0.000330817 -0 0.000833193 -0 0.000833193)
(0.000833131 -0.000330799 -0 0.000833131 -0 0.000833131)
(0.000833142 -0.00033082 -0 0.000833142 -0 0.000833142)
(0.000833239 -0.000330872 -0 0.000833239 -0 0.000833239)
(0.000949025 -0.000395593 -0 0.000949025 -0 0.000949025)
(0.000948957 -0.000395574 -0 0.000948957 -0 0.000948957)
(0.000948968 -0.000395601 -0 0.000948967 -0 0.000948968)
(0.000949077 -0.000395667 -0 0.000949077 -0 0.000949077)
(0.00106827 -0.000463639 -0 0.00106827 -0 0.00106827)
(0.0010682 -0.00046362 -0 0.0010682 -0 0.0010682)
(0.00106821 -0.000463652 -0 0.00106821 -0 0.00106821)
(0.00106833 -0.000463735 -0 0.00106833 -0 0.00106833)
(0.00118924 -0.000533422 -0 0.00118924 -0 0.00118924)
(0.00118916 -0.000533404 -0 0.00118916 -0 0.00118916)
(0.00118917 -0.00053344 -0 0.00118917 -0 0.00118917)
(0.0011893 -0.000533541 -0 0.0011893 -0 0.0011893)
(0.00131025 -0.00060369 -0 0.00131025 -0 0.00131025)
(0.00131017 -0.000603672 -0 0.00131017 -0 0.00131017)
(0.00131017 -0.000603711 -0 0.00131016 -0 0.00131017)
(0.00131031 -0.000603836 -0 0.00131031 -0 0.00131031)
(0.00142979 -0.000664851 -0 0.00142979 -0 0.00142979)
(0.0014297 -0.000664811 -0 0.0014297 -0 0.0014297)
(0.00142969 -0.000664805 -0 0.00142969 -0 0.00142969)
(0.00142984 -0.000664875 -0 0.00142984 -0 0.00142984)
(0.00154688 -0.000719298 -0 0.00154688 -0 0.00154688)
(0.00154679 -0.000719257 -0 0.00154679 -0 0.00154679)
(0.00154677 -0.000719246 -0 0.00154677 -0 0.00154677)
(0.00154692 -0.00071932 -0 0.00154693 -0 0.00154693)
(0.00166079 -0.000772268 -0 0.00166079 -0 0.00166079)
(0.0016607 -0.000772227 -0 0.0016607 -0 0.0016607)
(0.00166067 -0.000772211 -0 0.00166067 -0 0.00166067)
(0.00166084 -0.000772289 -0 0.00166084 -0 0.00166084)
(0.00177081 -0.000823429 -0 0.00177082 -0 0.00177081)
(0.00177073 -0.000823388 -0 0.00177073 -0 0.00177073)
(0.00177069 -0.000823368 -0 0.00177068 -0 0.00177068)
(0.00177086 -0.000823448 -0 0.00177086 -0 0.00177086)
(0.00187634 -0.000872496 -0 0.00187634 -0 0.00187634)
(0.00187625 -0.000872457 -0 0.00187625 -0 0.00187625)
(0.0018762 -0.000872432 -0 0.0018762 -0 0.0018762)
(0.00187638 -0.000872515 -0 0.00187638 -0 0.00187638)
(0.00197685 -0.000919237 -0 0.00197685 -0 0.00197685)
(0.00197677 -0.000919198 -0 0.00197677 -0 0.00197677)
(0.00197671 -0.000919169 -0 0.00197671 -0 0.00197671)
(0.00197689 -0.000919254 -0 0.00197689 -0 0.00197689)
(0.00207197 -0.000963465 -0 0.00207197 -0 0.00207197)
(0.00207189 -0.000963429 -0 0.00207189 -0 0.00207189)
(0.00207182 -0.000963395 -0 0.00207182 -0 0.00207182)
(0.002072 -0.000963482 -0 0.002072 -0 0.002072)
(0.00216138 -0.00100504 -0 0.00216138 -0 0.00216138)
(0.00216131 -0.00100501 -0 0.00216131 -0 0.00216131)
(0.00216123 -0.00100497 -0 0.00216123 -0 0.00216123)
(0.00216142 -0.00100506 -0 0.00216142 -0 0.00216142)
(0.0022449 -0.00104388 -0 0.0022449 -0 0.0022449)
(0.00224483 -0.00104385 -0 0.00224483 -0 0.00224483)
(0.00224474 -0.00104381 -0 0.00224474 -0 0.00224474)
(0.00224493 -0.0010439 -0 0.00224493 -0 0.00224493)
(0.00232239 -0.00107993 -0 0.0023224 -0 0.00232239)
(0.00232233 -0.0010799 -0 0.00232233 -0 0.00232233)
(0.00232224 -0.00107986 -0 0.00232223 -0 0.00232223)
(0.00232242 -0.00107994 -0 0.00232242 -0 0.00232242)
(0.00239383 -0.00111319 -0 0.00239384 -0 0.00239383)
(0.00239377 -0.00111316 -0 0.00239377 -0 0.00239377)
(0.00239367 -0.00111312 -0 0.00239367 -0 0.00239367)
(0.00239386 -0.0011132 -0 0.00239386 -0 0.00239386)
(0.00245924 -0.00114371 -0 0.00245924 -0 0.00245924)
(0.00245918 -0.00114368 -0 0.00245918 -0 0.00245918)
(0.00245908 -0.00114364 -0 0.00245908 -0 0.00245908)
(0.00245926 -0.00114372 -0 0.00245926 -0 0.00245926)
(0.00251869 -0.00117161 -0 0.00251869 -0 0.00251869)
(0.00251864 -0.00117159 -0 0.00251864 -0 0.00251864)
(0.00251853 -0.00117153 -0 0.00251853 -0 0.00251853)
(0.00251871 -0.00117162 -0 0.00251871 -0 0.00251871)
(0.00257231 -0.00119709 -0 0.00257232 -0 0.00257231)
(0.00257226 -0.00119707 -0 0.00257226 -0 0.00257226)
(0.00257216 -0.00119701 -0 0.00257215 -0 0.00257215)
(0.00257233 -0.00119709 -0 0.00257233 -0 0.00257233)
(0.00262026 -0.00122045 -0 0.00262026 -0 0.00262026)
(0.00262021 -0.00122042 -0 0.00262021 -0 0.00262021)
(0.0026201 -0.00122037 -0 0.0026201 -0 0.0026201)
(0.00262027 -0.00122045 -0 0.00262027 -0 0.00262027)
(0.00266269 -0.00124208 -0 0.00266269 -0 0.00266269)
(0.00266264 -0.00124206 -0 0.00266264 -0 0.00266264)
(0.00266253 -0.00124201 -0 0.00266253 -0 0.00266253)
(0.0026627 -0.00124208 -0 0.0026627 -0 0.0026627)
(0.00269978 -0.0012625 -0 0.00269978 -0 0.00269978)
(0.00269973 -0.00126248 -0 0.00269973 -0 0.00269973)
(0.00269962 -0.00126242 -0 0.00269962 -0 0.00269962)
(0.00269979 -0.00126249 -0 0.0026998 -0 0.00269979)
(0.00273169 -0.00128227 -0 0.00273169 -0 0.00273169)
(0.00273164 -0.00128225 -0 0.00273164 -0 0.00273164)
(0.00273153 -0.00128219 -0 0.00273153 -0 0.00273153)
(0.0027317 -0.00128225 -0 0.00273171 -0 0.0027317)
(0.00275854 -0.00130002 -0 0.00275854 -0 0.00275854)
(0.00275849 -0.00130002 -0 0.00275849 -0 0.00275849)
(0.00275839 -0.00130002 -0 0.00275839 -0 0.00275839)
(0.00275856 -0.00130031 -0 0.00275856 -0 0.00275856)
(0.00278045 -0.00130426 -0 0.00278045 -0 0.00278045)
(0.0027804 -0.00130426 -0 0.0027804 -0 0.0027804)
(0.0027803 -0.00130425 -0 0.0027803 -0 0.0027803)
(0.00278047 -0.00130451 -0 0.00278048 -0 0.00278048)
(0.00279791 -0.00130779 -0 0.00279791 -0 0.00279791)
(0.00279786 -0.00130779 -0 0.00279786 -0 0.00279786)
(0.00279777 -0.00130779 -0 0.00279777 -0 0.00279777)
(0.00279793 -0.00130805 -0 0.00279793 -0 0.00279793)
(0.00281124 -0.00130975 -0 0.00281124 -0 0.00281124)
(0.0028112 -0.00130975 -0 0.00281119 -0 0.0028112)
(0.00281111 -0.00130975 -0 0.0028111 -0 0.0028111)
(0.00281126 -0.00130999 -0 0.00281126 -0 0.00281126)
(0.00282076 -0.00131032 -0 0.00282076 -0 0.00282076)
(0.00282072 -0.00131032 -0 0.00282072 -0 0.00282072)
(0.00282063 -0.00131032 -0 0.00282063 -0 0.00282063)
(0.00282078 -0.00131055 -0 0.00282078 -0 0.00282078)
(0.00282674 -0.00130969 -0 0.00282675 -0 0.00282675)
(0.00282671 -0.00130968 -0 0.00282671 -0 0.00282671)
(0.00282662 -0.00130969 -0 0.00282662 -0 0.00282662)
(0.00282676 -0.00130991 -0 0.00282676 -0 0.00282676)
(0.00282945 -0.00130802 -0 0.00282946 -0 0.00282946)
(0.00282942 -0.00130801 -0 0.00282942 -0 0.00282942)
(0.00282934 -0.00130803 -0 0.00282934 -0 0.00282934)
(0.00282947 -0.00130823 -0 0.00282947 -0 0.00282947)
(0.00282911 -0.00130545 -0 0.00282912 -0 0.00282911)
(0.00282908 -0.00130543 -0 0.00282908 -0 0.00282908)
(0.00282901 -0.00130545 -0 0.00282901 -0 0.00282901)
(0.00282913 -0.00130564 -0 0.00282913 -0 0.00282913)
(0.00282591 -0.00130206 -0 0.00282591 -0 0.00282591)
(0.00282588 -0.00130205 -0 0.00282588 -0 0.00282588)
(0.00282581 -0.00130206 -0 0.00282581 -0 0.00282581)
(0.00282592 -0.00130224 -0 0.00282592 -0 0.00282592)
(0.00281999 -0.00129792 -0 0.00281999 -0 0.00281999)
(0.00281996 -0.00129791 -0 0.00281996 -0 0.00281996)
(0.0028199 -0.00129792 -0 0.0028199 -0 0.0028199)
(0.00282 -0.00129808 -0 0.00282 -0 0.00282)
(0.00281148 -0.00129304 -0 0.00281148 -0 0.00281148)
(0.00281146 -0.00129303 -0 0.00281146 -0 0.00281146)
(0.0028114 -0.00129303 -0 0.0028114 -0 0.0028114)
(0.00281149 -0.00129318 -0 0.00281149 -0 0.00281149)
(0.00280047 -0.00128739 -0 0.00280047 -0 0.00280047)
(0.00280045 -0.00128739 -0 0.00280045 -0 0.00280045)
(0.0028004 -0.00128739 -0 0.00280039 -0 0.00280039)
(0.00280048 -0.00128753 -0 0.00280047 -0 0.00280047)
(0.00278702 -0.00128095 -0 0.00278702 -0 0.00278702)
(0.002787 -0.00128095 -0 0.002787 -0 0.002787)
(0.00278695 -0.00128093 -0 0.00278695 -0 0.00278695)
(0.00278702 -0.00128106 -0 0.00278702 -0 0.00278702)
(0.00277116 -0.00127363 -0 0.00277116 -0 0.00277116)
(0.00277114 -0.00127363 -0 0.00277114 -0 0.00277114)
(0.0027711 -0.00127362 -0 0.00277109 -0 0.00277109)
(0.00277116 -0.00127374 -0 0.00277116 -0 0.00277116)
(0.00275291 -0.00126539 -0 0.00275291 -0 0.00275291)
(0.0027529 -0.00126539 -0 0.0027529 -0 0.0027529)
(0.00275285 -0.00126538 -0 0.00275285 -0 0.00275285)
(0.00275291 -0.00126549 -0 0.00275291 -0 0.00275291)
(0.00273228 -0.00125616 -0 0.00273228 -0 0.00273228)
(0.00273227 -0.00125616 -0 0.00273227 -0 0.00273227)
(0.00273223 -0.00125614 -0 0.00273222 -0 0.00273223)
(0.00273228 -0.00125624 -0 0.00273228 -0 0.00273228)
(0.00270926 -0.00124587 -0 0.00270926 -0 0.00270926)
(0.00270925 -0.00124587 -0 0.00270925 -0 0.00270925)
(0.00270922 -0.00124585 -0 0.00270921 -0 0.00270922)
(0.00270926 -0.00124594 -0 0.00270926 -0 0.00270926)
(0.00268386 -0.00123448 -0 0.00268386 -0 0.00268386)
(0.00268385 -0.00123447 -0 0.00268385 -0 0.00268385)
(0.00268381 -0.00123446 -0 0.00268381 -0 0.00268381)
(0.00268386 -0.00123454 -0 0.00268386 -0 0.00268386)
(0.00265606 -0.00122195 -0 0.00265606 -0 0.00265606)
(0.00265605 -0.00122194 -0 0.00265605 -0 0.00265605)
(0.00265602 -0.00122193 -0 0.00265602 -0 0.00265602)
(0.00265606 -0.00122201 -0 0.00265606 -0 0.00265606)
(0.00262586 -0.00120825 -0 0.00262586 -0 0.00262586)
(0.00262586 -0.00120824 -0 0.00262586 -0 0.00262586)
(0.00262583 -0.00120823 -0 0.00262583 -0 0.00262583)
(0.00262586 -0.0012083 -0 0.00262586 -0 0.00262586)
(0.00259328 -0.00119336 -0 0.00259328 -0 0.00259328)
(0.00259327 -0.00119336 -0 0.00259327 -0 0.00259327)
(0.00259325 -0.00119335 -0 0.00259325 -0 0.00259325)
(0.00259328 -0.00119342 -0 0.00259328 -0 0.00259328)
(0.00255832 -0.0011773 -0 0.00255832 -0 0.00255832)
(0.00255831 -0.00117729 -0 0.00255831 -0 0.00255831)
(0.00255829 -0.00117729 -0 0.00255829 -0 0.00255829)
(0.00255832 -0.00117735 -0 0.00255832 -0 0.00255832)
(0.002521 -0.00116006 -0 0.002521 -0 0.002521)
(0.00252099 -0.00116006 -0 0.00252099 -0 0.00252099)
(0.00252097 -0.00116006 -0 0.00252097 -0 0.00252097)
(0.002521 -0.00116012 -0 0.002521 -0 0.002521)
(0.00248134 -0.00114167 -0 0.00248134 -0 0.00248134)
(0.00248133 -0.00114167 -0 0.00248133 -0 0.00248133)
(0.00248132 -0.00114168 -0 0.00248132 -0 0.00248132)
(0.00248134 -0.00114173 -0 0.00248134 -0 0.00248134)
(0.00243939 -0.00112216 -0 0.00243939 -0 0.00243939)
(0.00243937 -0.00112216 -0 0.00243937 -0 0.00243937)
(0.00243937 -0.00112218 -0 0.00243938 -0 0.00243938)
(0.00243939 -0.00112223 -0 0.00243939 -0 0.00243939)
(0.00239518 -0.00110156 -0 0.00239518 -0 0.00239518)
(0.00239515 -0.00110156 -0 0.00239516 -0 0.00239516)
(0.00239517 -0.00110161 -0 0.00239517 -0 0.00239517)
(0.00239519 -0.00110164 -0 0.00239519 -0 0.00239519)
(0.00234875 -0.00107993 -0 0.00234875 -0 0.00234875)
(0.00234873 -0.00107994 -0 0.00234873 -0 0.00234873)
(0.00234875 -0.00108 -0 0.00234875 -0 0.00234875)
(0.00234877 -0.00108003 -0 0.00234876 -0 0.00234876)
(0.00230016 -0.00105732 -0 0.00230015 -0 0.00230016)
(0.00230013 -0.00105736 -0 0.00230014 -0 0.00230013)
(0.00230016 -0.00105744 -0 0.00230016 -0 0.00230016)
(0.00230018 -0.00105744 -0 0.00230018 -0 0.00230018)
(0.00224944 -0.00103379 -0 0.00224944 -0 0.00224944)
(0.00224943 -0.00103389 -0 0.00224943 -0 0.00224943)
(0.00224946 -0.00103399 -0 0.00224946 -0 0.00224946)
(0.00224947 -0.00103395 -0 0.00224947 -0 0.00224947)
(0.00219665 -0.00100943 -0 0.00219665 -0 0.00219665)
(0.00219665 -0.00100963 -0 0.00219665 -0 0.00219665)
(0.00219668 -0.0010097 -0 0.00219669 -0 0.00219669)
(0.0021967 -0.00100962 -0 0.0021967 -0 0.0021967)
(0.00214184 -0.000984299 -0 0.00214184 -0 0.00214184)
(0.00214185 -0.000984574 -0 0.00214185 -0 0.00214185)
(0.00214188 -0.000984671 -0 0.00214188 -0 0.00214188)
(0.0021419 -0.00098464 -0 0.0021419 -0 0.0021419)
(0.00208503 -0.00095779 -0 0.00208502 -0 0.00208502)
(0.00208504 -0.000958071 -0 0.00208503 -0 0.00208504)
(0.00208506 -0.000958178 -0 0.00208506 -0 0.00208506)
(0.00208509 -0.000958236 -0 0.0020851 -0 0.0020851)
(0.00202625 -0.000929849 -0 0.00202625 -0 0.00202625)
(0.00202626 -0.000930094 -0 0.00202626 -0 0.00202626)
(0.00202628 -0.000930128 -0 0.00202628 -0 0.00202628)
(0.00202632 -0.000930287 -0 0.00202633 -0 0.00202632)
(0.00196561 -0.000900433 -0 0.00196561 -0 0.00196561)
(0.00196562 -0.000900596 -0 0.00196561 -0 0.00196561)
(0.00196561 -0.000900609 -0 0.00196561 -0 0.00196561)
(0.00196567 -0.000900866 -0 0.00196568 -0 0.00196567)
(0.00190338 -0.000869641 -0 0.00190338 -0 0.00190338)
(0.00190338 -0.000869776 -0 0.00190337 -0 0.00190337)
(0.00190336 -0.000869783 -0 0.00190336 -0 0.00190336)
(0.00190343 -0.000870098 -0 0.00190344 -0 0.00190344)
(0.00183983 -0.000837619 -0 0.00183983 -0 0.00183983)
(0.00183982 -0.000837753 -0 0.00183982 -0 0.00183982)
(0.00183979 -0.000837742 -0 0.00183979 -0 0.00183979)
(0.00183988 -0.000838122 -0 0.00183988 -0 0.00183988)
(0.00177509 -0.00080444 -0 0.00177509 -0 0.00177509)
(0.00177508 -0.000804584 -0 0.00177508 -0 0.00177508)
(0.00177504 -0.000804558 -0 0.00177505 -0 0.00177504)
(0.00177514 -0.000804999 -0 0.00177514 -0 0.00177514)
(0.00170935 -0.000770124 -0 0.00170935 -0 0.00170935)
(0.00170934 -0.000770348 -0 0.00170933 -0 0.00170933)
(0.00170929 -0.00077029 -0 0.0017093 -0 0.00170929)
(0.00170939 -0.000770814 -0 0.0017094 -0 0.00170939)
(0.00164283 -0.000735002 -0 0.00164283 -0 0.00164283)
(0.00164281 -0.000735055 -0 0.00164281 -0 0.00164281)
(0.00164277 -0.000735075 -0 0.00164277 -0 0.00164277)
(0.00164287 -0.000735611 -0 0.00164287 -0 0.00164287)
(0.00157581 -0.000698778 -0 0.0015758 -0 0.00157581)
(0.00157579 -0.000698904 -0 0.00157578 -0 0.00157578)
(0.00157573 -0.000698911 -0 0.00157574 -0 0.00157574)
(0.00157584 -0.00069947 -0 0.00157585 -0 0.00157584)
(0.00150858 -0.000661616 -0 0.00150858 -0 0.00150858)
(0.00150856 -0.000661822 -0 0.00150855 -0 0.00150856)
(0.0015085 -0.000661842 -0 0.00150851 -0 0.00150851)
(0.00150862 -0.000662466 -0 0.00150862 -0 0.00150862)
(0.00144152 -0.000623902 -0 0.00144152 -0 0.00144152)
(0.00144148 -0.000623718 -0 0.00144147 -0 0.00144148)
(0.00144144 -0.000624074 -0 0.00144144 -0 0.00144144)
(0.00144155 -0.000624605 -0 0.00144155 -0 0.00144155)
(0.00137501 -0.000585194 -0 0.00137501 -0 0.00137501)
(0.00137496 -0.000585277 -0 0.00137496 -0 0.00137496)
(0.00137492 -0.00058537 -0 0.00137493 -0 0.00137492)
(0.00137503 -0.000585997 -0 0.00137504 -0 0.00137503)
(0.00130948 -0.000545794 -0 0.00130948 -0 0.00130948)
(0.00130943 -0.000545821 -0 0.00130943 -0 0.00130943)
(0.00130939 -0.000546028 -0 0.0013094 -0 0.00130939)
(0.0013095 -0.000546651 -0 0.00130951 -0 0.0013095)
(0.00124542 -0.000505731 -0 0.00124541 -0 0.00124541)
(0.00124535 -0.00050548 -0 0.00124535 -0 0.00124535)
(0.00124531 -0.000505898 -0 0.00124532 -0 0.00124532)
(0.00124543 -0.000506643 -0 0.00124544 -0 0.00124543)
(0.00118333 -0.000464967 -0 0.00118332 -0 0.00118332)
(0.00118325 -0.000464751 -0 0.00118324 -0 0.00118325)
(0.00118321 -0.000465067 -0 0.00118322 -0 0.00118322)
(0.00118334 -0.000465939 -0 0.00118334 -0 0.00118334)
(0.00112377 -0.000423617 -0 0.00112376 -0 0.00112376)
(0.00112367 -0.000423264 -0 0.00112367 -0 0.00112367)
(0.00112366 -0.000424004 -0 0.00112367 -0 0.00112366)
(0.00112378 -0.000424451 -0 0.00112378 -0 0.00112378)
(0.00106733 -0.0003816 -0 0.00106732 -0 0.00106733)
(0.00106722 -0.000381256 -0 0.00106722 -0 0.00106722)
(0.00106723 -0.000382054 -0 0.00106724 -0 0.00106723)
(0.00106735 -0.000382412 -0 0.00106734 -0 0.00106734)
(0.00101463 -0.000338968 -0 0.00101463 -0 0.00101463)
(0.00101452 -0.000338631 -0 0.00101452 -0 0.00101452)
(0.00101454 -0.000339445 -0 0.00101454 -0 0.00101454)
(0.00101465 -0.00033976 -0 0.00101465 -0 0.00101465)
(0.000966319 -0.000295731 -0 0.000966315 -0 0.000966317)
(0.000966201 -0.000295407 -0 0.000966205 -0 0.000966203)
(0.000966225 -0.000296201 -0 0.000966229 -0 0.000966227)
(0.000966336 -0.000296488 -0 0.000966331 -0 0.000966333)
(0.000923039 -0.000251883 -0 0.000923037 -0 0.000923038)
(0.000922919 -0.000251583 -0 0.000922924 -0 0.000922922)
(0.000922946 -0.000252328 -0 0.000922948 -0 0.000922947)
(0.000923055 -0.000252585 -0 0.00092305 -0 0.000923053)
(0.000885429 -0.000207411 -0 0.000885429 -0 0.000885429)
(0.000885309 -0.000207145 -0 0.000885316 -0 0.000885312)
(0.000885338 -0.000207812 -0 0.000885338 -0 0.000885338)
(0.000885446 -0.000208034 -0 0.000885439 -0 0.000885443)
(0.000854026 -0.000162281 -0 0.000854027 -0 0.000854027)
(0.000853904 -0.000162061 -0 0.000853912 -0 0.000853908)
(0.000853937 -0.00016262 -0 0.000853936 -0 0.000853937)
(0.000854047 -0.000162803 -0 0.000854039 -0 0.000854043)
(0.000829342 -0.000116466 -0 0.000829345 -0 0.000829344)
(0.000829223 -0.000116305 -0 0.000829233 -0 0.000829228)
(0.000829255 -0.000116723 -0 0.000829252 -0 0.000829254)
(0.000829364 -0.00011687 -0 0.000829355 -0 0.00082936)
(0.000812248 -6.9977e-05 -0 0.000812252 -0 0.00081225)
(0.000812135 -6.98841e-05 -0 0.000812145 -0 0.00081214)
(0.000812161 -7.01348e-05 -0 0.000812157 -0 0.000812159)
(0.000812268 -7.0242e-05 -0 0.000812257 -0 0.000812262)
(0.000803491 -2.32897e-05 -0 0.000803496 -0 0.000803493)
(0.000803382 -2.32663e-05 -0 0.000803392 -0 0.000803387)
(0.000803404 -2.33416e-05 -0 0.000803399 -0 0.000803401)
(0.000803511 -2.33915e-05 -0 0.000803501 -0 0.000803506)
)
;

boundaryField
{
    inlet
    {
        type            cyclic;
    }
    outlet
    {
        type            cyclic;
    }
    fixedWalls-bottom
    {
        type            kqRWallFunction;
        value           nonuniform List<symmTensor> 4((1.54605e-09 -0 -0 1.54605e-09 -0 1.54605e-09) (1.54591e-09 -0 -0 1.54591e-09 -0 1.54591e-09) (1.54592e-09 -0 -0 1.54592e-09 -0 1.54592e-09) (1.54606e-09 -0 -0 1.54606e-09 -0 1.54606e-09));
    }
    fixedWalls-top
    {
        type            symmetry;
    }
    frontAndBack
    {
        type            empty;
    }
}


// ************************************************************************* //
