# Residuals   
# Time        	p             	Ux            	Uy            
0             	N/A	N/A
1             	9.999919e-01	0.000000e+00	0.000000e+00
2             	1.000000e+00	9.895790e-01	1.000000e+00
3             	3.215665e-01	1.756464e-01	6.450058e-01
4             	1.978325e-01	8.060180e-02	6.388201e-01
5             	1.331671e-01	9.197952e-02	4.641207e-01
6             	1.629323e-01	7.711249e-02	6.035273e-01
7             	2.471797e-01	1.046558e-01	6.567080e-01
8             	4.382510e-01	1.218065e-01	5.947250e-01
9             	4.151613e-01	9.574918e-02	6.637217e-01
10            	3.391383e-01	5.866652e-02	7.170904e-01
11            	5.560109e-01	4.713775e-02	6.211292e-01
12            	3.729879e-01	3.906610e-02	5.538969e-01
13            	5.192836e-01	3.544749e-02	5.704802e-01
14            	3.144647e-01	3.298056e-02	5.968096e-01
15            	6.053836e-01	3.221477e-02	6.144412e-01
16            	3.105559e-01	2.946733e-02	6.579118e-01
17            	3.274154e-01	2.762007e-02	6.258336e-01
18            	3.157120e-01	2.544695e-02	4.765366e-01
19            	2.660179e-01	2.378206e-02	5.126930e-01
20            	4.020596e-01	2.205369e-02	5.937691e-01
21            	3.450518e-01	2.145643e-02	5.498696e-01
22            	2.143483e-01	2.160073e-02	4.769099e-01
23            	9.974201e-02	2.135712e-02	4.626882e-01
24            	6.674006e-02	2.158573e-02	3.664921e-01
25            	5.306506e-02	2.180599e-02	2.964487e-01
26            	4.895971e-02	2.211685e-02	2.725435e-01
27            	7.007820e-02	2.210984e-02	2.414603e-01
28            	8.143736e-02	2.287361e-02	2.019485e-01
29            	4.888418e-02	2.222040e-02	1.689626e-01
30            	2.134883e-02	2.227468e-02	1.238896e-01
31            	1.995275e-02	2.085330e-02	1.018176e-01
32            	1.178313e-02	1.825046e-02	1.092333e-01
33            	1.462217e-02	1.475011e-02	1.139975e-01
34            	8.890062e-03	1.276233e-02	1.358470e-01
35            	1.053129e-02	1.187218e-02	1.495865e-01
36            	7.902712e-03	1.136870e-02	1.498685e-01
37            	1.168773e-02	1.083632e-02	1.380081e-01
38            	1.178520e-02	1.056574e-02	1.289572e-01
39            	1.950675e-02	1.020168e-02	1.250204e-01
40            	2.821780e-02	1.009468e-02	1.158143e-01
41            	6.846436e-02	9.798180e-03	1.060143e-01
42            	2.043254e-02	9.636234e-03	1.071975e-01
43            	1.240948e-02	9.496444e-03	1.157005e-01
44            	1.021646e-02	9.342788e-03	1.281869e-01
45            	8.376266e-03	9.208516e-03	1.322696e-01
46            	8.811246e-03	9.096263e-03	1.308208e-01
47            	8.040304e-03	8.994221e-03	1.271231e-01
48            	8.766725e-03	8.903784e-03	1.197192e-01
49            	9.833873e-03	8.821165e-03	1.070823e-01
50            	1.523020e-02	8.746084e-03	9.832784e-02
51            	2.422397e-02	8.681798e-03	8.668807e-02
52            	5.700876e-02	8.622843e-03	8.244054e-02
53            	2.130000e-02	8.566992e-03	7.890204e-02
54            	1.523595e-02	8.516752e-03	7.511292e-02
55            	1.767427e-02	8.473405e-03	7.293936e-02
56            	1.654493e-02	8.439526e-03	6.294184e-02
57            	1.585653e-02	8.403993e-03	4.807507e-02
58            	2.046679e-02	8.374381e-03	4.660362e-02
59            	2.081532e-02	8.349863e-03	4.770459e-02
60            	2.316781e-02	8.330370e-03	4.296357e-02
61            	2.571759e-02	8.309960e-03	4.347715e-02
62            	3.486335e-02	8.295599e-03	4.239425e-02
63            	3.223592e-02	8.285830e-03	4.009395e-02
64            	2.702272e-02	8.274218e-03	4.287691e-02
65            	3.727899e-02	8.265231e-03	4.210228e-02
66            	2.643432e-02	8.259568e-03	3.955772e-02
67            	1.815081e-02	8.259199e-03	3.819333e-02
68            	1.258033e-02	8.260438e-03	4.651873e-02
69            	8.289531e-03	8.260825e-03	4.468925e-02
70            	6.104364e-03	8.262866e-03	3.921082e-02
71            	5.220312e-03	8.270637e-03	3.521975e-02
72            	3.763430e-03	8.279326e-03	3.611040e-02
73            	5.604337e-03	8.291321e-03	3.749796e-02
74            	2.974117e-03	8.302759e-03	3.526877e-02
75            	2.937223e-03	8.315136e-03	3.795434e-02
76            	2.700409e-03	8.329935e-03	3.510293e-02
77            	3.256537e-03	8.345514e-03	2.925762e-02
78            	2.517249e-03	8.362562e-03	2.403270e-02
79            	2.652397e-03	8.381622e-03	1.983889e-02
80            	1.904467e-03	8.401327e-03	1.823959e-02
81            	1.421543e-03	8.423347e-03	1.900166e-02
82            	1.738284e-03	8.445790e-03	1.888259e-02
83            	1.618290e-03	8.470022e-03	1.667713e-02
84            	1.273290e-03	8.495818e-03	1.281999e-02
85            	1.122899e-03	8.522846e-03	1.409331e-02
86            	1.466861e-03	8.550495e-03	1.120686e-02
87            	1.310625e-03	8.580081e-03	1.094986e-02
88            	1.164480e-03	8.611628e-03	9.917042e-03
89            	9.428484e-04	8.644520e-03	9.269686e-03
90            	1.136818e-03	8.676912e-03	8.479525e-03
91            	1.086164e-03	8.711820e-03	8.673507e-03
92            	1.098504e-03	8.749200e-03	7.282693e-03
93            	1.089645e-03	8.786434e-03	7.217586e-03
94            	8.941002e-04	8.824216e-03	7.172367e-03
95            	1.383997e-03	8.863339e-03	7.207358e-03
96            	1.132462e-03	8.904258e-03	8.096076e-03
97            	1.053350e-03	8.944605e-03	7.918405e-03
98            	1.014299e-03	8.984245e-03	7.234424e-03
99            	1.124940e-03	9.026768e-03	6.520165e-03
100           	1.035892e-03	9.073181e-03	6.443662e-03
101           	1.081121e-03	9.121035e-03	6.326984e-03
102           	9.814342e-04	9.167916e-03	5.855285e-03
103           	1.057640e-03	9.214115e-03	5.623840e-03
104           	1.133115e-03	9.261971e-03	5.382972e-03
105           	1.092082e-03	9.300759e-03	5.479693e-03
106           	1.068171e-03	9.353177e-03	5.408642e-03
107           	1.255445e-03	9.407452e-03	5.781878e-03
108           	1.162712e-03	9.462421e-03	6.042717e-03
109           	1.168987e-03	9.508858e-03	5.820441e-03
110           	1.134378e-03	9.557036e-03	5.960768e-03
111           	1.341550e-03	9.616923e-03	6.450244e-03
112           	1.120103e-03	9.670562e-03	6.350278e-03
113           	1.831685e-03	9.613084e-03	5.388282e-03
114           	1.887977e-03	9.582401e-03	5.792996e-03
115           	1.715136e-03	9.581642e-03	6.206772e-03
116           	5.016286e-03	9.797360e-03	6.238693e-03
117           	2.525767e-03	9.506888e-03	6.847021e-03
118           	2.629523e-03	9.775269e-03	9.182573e-03
119           	1.514970e-03	9.490610e-03	8.695159e-03
120           	4.604346e-03	9.757966e-03	6.664365e-03
121           	3.749495e-03	9.479971e-03	1.120783e-02
122           	4.429943e-03	9.739088e-03	7.176754e-03
123           	2.879774e-03	9.474628e-03	6.221635e-03
124           	2.332741e-03	9.726200e-03	9.390168e-03
125           	1.338578e-03	9.471472e-03	1.279015e-02
126           	2.631061e-03	9.713762e-03	9.057269e-03
127           	3.582319e-03	9.468136e-03	7.140853e-03
128           	2.924416e-03	9.702887e-03	4.976218e-03
129           	9.153092e-04	9.467202e-03	8.083414e-03
130           	2.900127e-03	9.695447e-03	7.904399e-03
131           	3.046322e-03	9.466506e-03	8.163553e-03
132           	3.138137e-03	9.689209e-03	6.194626e-03
133           	1.300560e-03	9.466396e-03	6.851240e-03
134           	3.011850e-03	9.681987e-03	7.022756e-03
135           	2.624539e-03	9.467179e-03	6.930766e-03
136           	1.742998e-03	9.678661e-03	8.019043e-03
137           	2.028565e-03	9.471416e-03	1.022055e-02
138           	8.905351e-04	9.676425e-03	9.161368e-03
139           	2.094905e-03	9.475274e-03	9.311385e-03
140           	2.636000e-03	9.672866e-03	7.321970e-03
141           	1.897513e-03	9.478582e-03	6.600471e-03
142           	2.149220e-03	9.669591e-03	8.120777e-03
143           	1.302463e-03	9.482451e-03	9.106285e-03
144           	2.326794e-03	9.666892e-03	8.639136e-03
145           	2.529394e-03	9.485938e-03	9.403444e-03
146           	1.803069e-03	9.663935e-03	9.376718e-03
147           	1.891072e-03	9.490240e-03	1.089922e-02
148           	1.446998e-03	9.662857e-03	9.737893e-03
149           	1.736822e-03	9.486691e-03	8.721534e-03
150           	2.005156e-03	9.590889e-03	7.796242e-03
151           	3.376134e-03	9.746020e-03	7.683689e-03
152           	2.454041e-03	9.476952e-03	1.155284e-02
153           	1.995821e-03	9.576424e-03	1.061952e-02
154           	3.490748e-03	9.691694e-03	9.928512e-03
155           	2.268435e-03	9.481657e-03	9.702080e-03
156           	1.567191e-03	9.575493e-03	9.129114e-03
157           	4.780026e-03	9.691012e-03	9.033129e-03
158           	3.005409e-03	9.486836e-03	6.995895e-03
159           	2.177778e-03	9.579688e-03	8.541823e-03
160           	1.853655e-03	9.679620e-03	1.007728e-02
161           	1.785744e-03	9.496459e-03	9.888620e-03
162           	2.860791e-03	9.551426e-03	8.812695e-03
163           	2.183728e-03	9.616110e-03	8.980012e-03
164           	1.785756e-03	9.754214e-03	9.856238e-03
165           	2.258051e-03	9.506737e-03	1.034603e-02
166           	3.053218e-03	9.575311e-03	8.938546e-03
167           	2.814123e-03	9.538768e-03	8.223042e-03
168           	2.882779e-03	9.561586e-03	8.234419e-03
169           	2.379598e-03	9.645228e-03	9.259777e-03
170           	2.492564e-03	9.753976e-03	9.686747e-03
171           	1.314015e-03	9.534699e-03	9.284002e-03
172           	1.827237e-03	9.595901e-03	8.637179e-03
173           	1.915703e-03	9.566142e-03	8.519094e-03
174           	2.084736e-03	9.587123e-03	8.592933e-03
175           	1.885895e-03	9.586551e-03	8.713473e-03
176           	1.682687e-03	9.595337e-03	8.782058e-03
177           	1.471879e-03	9.599581e-03	8.909919e-03
178           	1.322633e-03	9.605710e-03	8.944988e-03
179           	1.237396e-03	9.610900e-03	9.127946e-03
180           	1.141000e-03	9.616538e-03	9.042374e-03
181           	1.174664e-03	9.621995e-03	9.157919e-03
182           	1.175621e-03	9.627637e-03	9.106193e-03
183           	1.224797e-03	9.633315e-03	9.103716e-03
184           	1.250503e-03	9.639149e-03	9.033648e-03
185           	1.350195e-03	9.645102e-03	9.115898e-03
186           	1.336879e-03	9.651223e-03	9.074834e-03
187           	1.383959e-03	9.657485e-03	9.130591e-03
188           	1.373786e-03	9.663924e-03	9.134848e-03
189           	1.392131e-03	9.670520e-03	9.108348e-03
190           	1.377445e-03	9.677312e-03	9.156787e-03
191           	1.404075e-03	9.684282e-03	9.111247e-03
192           	1.421840e-03	9.691460e-03	9.061803e-03
193           	1.454118e-03	9.698838e-03	9.107270e-03
194           	1.445197e-03	9.706435e-03	9.073022e-03
195           	1.496383e-03	9.714230e-03	9.129070e-03
196           	1.461530e-03	9.722252e-03	9.103428e-03
197           	1.486029e-03	9.730477e-03	9.115361e-03
198           	1.500306e-03	9.738940e-03	9.154971e-03
199           	1.574345e-03	9.747626e-03	9.189609e-03
200           	1.548891e-03	9.756559e-03	9.149954e-03
201           	1.568259e-03	9.765717e-03	9.171994e-03
202           	1.625323e-03	9.775132e-03	9.209364e-03
203           	1.701482e-03	9.784800e-03	9.269662e-03
204           	1.641429e-03	9.794729e-03	9.198534e-03
205           	1.718441e-03	9.804902e-03	9.196442e-03
206           	1.743585e-03	9.815339e-03	9.277477e-03
207           	1.793772e-03	9.826055e-03	9.305753e-03
208           	1.843760e-03	9.837043e-03	9.351870e-03
209           	1.882206e-03	9.848307e-03	9.336527e-03
210           	1.883191e-03	9.859862e-03	9.342586e-03
211           	1.965813e-03	9.871708e-03	9.334548e-03
212           	1.957227e-03	9.883860e-03	9.378265e-03
213           	2.047835e-03	9.896306e-03	9.423766e-03
214           	2.037075e-03	9.909071e-03	9.391295e-03
215           	2.121021e-03	9.922155e-03	9.412054e-03
216           	2.123937e-03	9.935574e-03	9.398558e-03
217           	2.216625e-03	9.949323e-03	9.412324e-03
218           	2.235406e-03	9.963437e-03	9.493606e-03
219           	2.301167e-03	9.977882e-03	9.491483e-03
220           	2.300678e-03	9.992697e-03	9.505945e-03
221           	2.432145e-03	1.000788e-02	9.508800e-03
222           	2.375269e-03	1.002345e-02	9.478182e-03
223           	2.505975e-03	1.003940e-02	9.539345e-03
224           	2.575589e-03	1.005576e-02	9.541500e-03
225           	2.706149e-03	1.007253e-02	9.663825e-03
226           	2.672119e-03	1.008972e-02	9.553469e-03
227           	2.697505e-03	1.010691e-02	9.537248e-03
228           	2.761899e-03	1.012452e-02	9.575980e-03
229           	2.888140e-03	1.014258e-02	9.615940e-03
230           	2.864477e-03	1.016079e-02	9.686592e-03
231           	2.951678e-03	1.017927e-02	9.622116e-03
232           	2.944770e-03	1.019821e-02	9.624350e-03
233           	3.050065e-03	1.021762e-02	9.693640e-03
234           	3.009903e-03	1.023753e-02	9.620918e-03
235           	3.163000e-03	1.025793e-02	9.700251e-03
236           	3.202625e-03	1.027884e-02	9.721084e-03
237           	3.332653e-03	1.030029e-02	9.767071e-03
238           	3.238237e-03	1.032229e-02	9.656503e-03
239           	3.350006e-03	1.034483e-02	9.702402e-03
240           	3.353874e-03	1.036794e-02	9.692032e-03
241           	3.467529e-03	1.039165e-02	9.709512e-03
242           	3.519914e-03	1.041598e-02	9.774955e-03
243           	3.547841e-03	1.044092e-02	9.730142e-03
244           	3.433373e-03	1.046650e-02	9.717321e-03
245           	3.705684e-03	1.049277e-02	9.746607e-03
246           	3.586673e-03	1.051971e-02	9.766027e-03
247           	3.719200e-03	1.054735e-02	9.808716e-03
248           	3.726663e-03	1.057570e-02	9.762718e-03
249           	3.769136e-03	1.060481e-02	9.749211e-03
250           	3.841676e-03	1.063465e-02	9.804049e-03
251           	4.005861e-03	1.066533e-02	9.802121e-03
252           	3.895215e-03	1.069679e-02	9.757248e-03
253           	3.996963e-03	1.072912e-02	9.796916e-03
254           	4.080041e-03	1.076226e-02	9.808335e-03
255           	4.142546e-03	1.079635e-02	9.830214e-03
256           	4.145282e-03	1.083131e-02	9.741990e-03
257           	4.254284e-03	1.086714e-02	9.786416e-03
258           	4.248381e-03	1.090289e-02	9.801898e-03
259           	4.322570e-03	1.093861e-02	9.796973e-03
260           	4.155004e-03	1.097524e-02	9.829396e-03
261           	4.328101e-03	1.101294e-02	9.815673e-03
262           	4.669395e-03	1.105147e-02	9.888926e-03
263           	4.621119e-03	1.109094e-02	9.786549e-03
264           	4.628147e-03	1.113140e-02	9.910565e-03
265           	4.699538e-03	1.117306e-02	9.742718e-03
266           	4.702630e-03	1.121582e-02	9.901331e-03
267           	4.692425e-03	1.125984e-02	9.778031e-03
268           	5.181330e-03	1.130502e-02	9.960817e-03
269           	5.031809e-03	1.135155e-02	9.797873e-03
270           	5.381568e-03	1.139942e-02	9.958556e-03
271           	5.227161e-03	1.144862e-02	9.803340e-03
272           	5.635202e-03	1.149927e-02	1.011420e-02
273           	5.552943e-03	1.155136e-02	9.863860e-03
274           	5.668602e-03	1.160503e-02	1.004652e-02
275           	5.513920e-03	1.165716e-02	9.742275e-03
276           	5.597472e-03	1.171016e-02	9.958711e-03
277           	5.454980e-03	1.176470e-02	9.722530e-03
278           	5.861162e-03	1.182096e-02	9.884539e-03
279           	5.670307e-03	1.187880e-02	9.851654e-03
280           	6.339475e-03	1.193838e-02	1.000956e-02
281           	6.509888e-03	1.199977e-02	9.898486e-03
282           	6.281128e-03	1.206297e-02	9.840042e-03
283           	6.463790e-03	1.212825e-02	9.712083e-03
284           	7.238028e-03	1.219549e-02	9.939946e-03
285           	7.182981e-03	1.226452e-02	9.750281e-03
286           	7.513785e-03	1.233459e-02	9.827681e-03
287           	7.783243e-03	1.240173e-02	9.661345e-03
288           	7.645166e-03	1.247090e-02	9.853617e-03
289           	7.731670e-03	1.254216e-02	9.501584e-03
290           	8.140050e-03	1.261573e-02	9.592295e-03
291           	8.584564e-03	1.269158e-02	9.429732e-03
292           	7.894551e-03	1.276984e-02	9.520503e-03
293           	9.169086e-03	1.285050e-02	9.322037e-03
294           	8.084346e-03	1.293401e-02	9.496736e-03
295           	8.862558e-03	1.301824e-02	9.041714e-03
296           	8.249289e-03	1.309931e-02	9.482928e-03
297           	9.774144e-03	1.318297e-02	8.964610e-03
298           	8.891909e-03	1.326936e-02	9.235870e-03
299           	1.042995e-02	1.335855e-02	8.847229e-03
300           	8.408127e-03	1.345108e-02	9.043909e-03
301           	1.002283e-02	1.354682e-02	8.876082e-03
302           	1.069789e-02	1.364372e-02	9.103780e-03
303           	8.175187e-03	1.373453e-02	8.962794e-03
304           	1.116455e-02	1.382751e-02	9.276678e-03
305           	1.189200e-02	1.392321e-02	8.925526e-03
306           	1.076467e-02	1.402253e-02	8.992633e-03
307           	1.077010e-02	1.412492e-02	8.682822e-03
308           	1.103341e-02	1.422891e-02	8.892998e-03
309           	1.391852e-02	1.432602e-02	8.926217e-03
310           	1.463273e-02	1.442587e-02	9.303010e-03
311           	1.597414e-02	1.452878e-02	9.287025e-03
312           	1.309810e-02	1.463532e-02	9.525148e-03
313           	1.167828e-02	1.474297e-02	9.477610e-03
314           	1.073869e-02	1.484268e-02	9.726618e-03
315           	1.031824e-02	1.494298e-02	9.581741e-03
316           	9.498371e-03	1.504551e-02	9.774958e-03
317           	9.354157e-03	1.514974e-02	9.699228e-03
318           	8.931327e-03	1.524574e-02	9.887023e-03
319           	9.475331e-03	1.533687e-02	9.661887e-03
320           	9.472128e-03	1.543107e-02	9.760273e-03
321           	1.010958e-02	1.552759e-02	9.647987e-03
322           	9.656496e-03	1.561253e-02	9.812272e-03
323           	9.022014e-03	1.569278e-02	9.744319e-03
324           	8.615820e-03	1.577553e-02	9.832144e-03
325           	8.375426e-03	1.585337e-02	9.643001e-03
326           	8.497460e-03	1.591722e-02	9.628773e-03
327           	8.126555e-03	1.598101e-02	9.590470e-03
328           	7.848964e-03	1.603817e-02	9.773216e-03
329           	7.644372e-03	1.607745e-02	9.669980e-03
330           	7.197662e-03	1.611262e-02	9.618893e-03
331           	6.653065e-03	1.613897e-02	9.681699e-03
332           	6.707934e-03	1.614723e-02	9.671544e-03
333           	6.700520e-03	1.615288e-02	9.533735e-03
334           	6.749258e-03	1.613947e-02	9.452883e-03
335           	6.223977e-03	1.611416e-02	9.505148e-03
336           	6.195389e-03	1.607766e-02	9.490095e-03
337           	5.992519e-03	1.602038e-02	9.381302e-03
338           	6.388642e-03	1.595276e-02	9.214408e-03
339           	5.419925e-03	1.586415e-02	9.489597e-03
340           	4.933793e-03	1.575981e-02	9.446611e-03
341           	4.895791e-03	1.563323e-02	9.581868e-03
342           	5.109125e-03	1.548929e-02	9.310550e-03
343           	4.583025e-03	1.532535e-02	9.448886e-03
344           	5.111367e-03	1.514542e-02	9.154996e-03
345           	4.499217e-03	1.494686e-02	9.485331e-03
346           	4.284843e-03	1.473004e-02	9.296089e-03
347           	3.907006e-03	1.449660e-02	9.608266e-03
348           	4.085107e-03	1.424802e-02	9.185443e-03
349           	3.784731e-03	1.399085e-02	9.372277e-03
350           	4.295962e-03	1.356020e-02	8.970387e-03
351           	3.677425e-03	1.304876e-02	9.413527e-03
352           	3.436831e-03	1.256463e-02	9.062009e-03
353           	3.166702e-03	1.210523e-02	9.579030e-03
354           	3.536045e-03	1.166853e-02	9.013310e-03
355           	3.332481e-03	1.125402e-02	9.114799e-03
356           	4.314378e-03	1.086087e-02	8.508804e-03
357           	3.182142e-03	1.048711e-02	9.241142e-03
358           	2.914422e-03	1.013177e-02	8.905004e-03
359           	2.558317e-03	9.793172e-03	9.452008e-03
360           	2.939122e-03	9.470760e-03	8.693222e-03
361           	2.566663e-03	9.162869e-03	8.969246e-03
362           	3.636694e-03	8.869097e-03	8.620719e-03
363           	2.544685e-03	8.588247e-03	9.350551e-03
364           	2.442145e-03	8.319927e-03	8.769719e-03
365           	2.200893e-03	8.062897e-03	9.472022e-03
366           	2.517133e-03	7.816279e-03	8.702067e-03
367           	2.196771e-03	7.579287e-03	8.805501e-03
368           	3.107913e-03	7.351553e-03	8.252824e-03
369           	2.189201e-03	7.132952e-03	9.083785e-03
370           	2.148524e-03	6.923423e-03	8.460599e-03
371           	1.861185e-03	6.721875e-03	9.142920e-03
372           	2.352820e-03	6.528477e-03	8.240233e-03
373           	2.233433e-03	6.342240e-03	8.513467e-03
374           	2.373424e-03	6.163345e-03	8.027299e-03
375           	1.972158e-03	5.990928e-03	8.678401e-03
376           	2.748141e-03	5.825148e-03	7.768342e-03
377           	1.808700e-03	5.665231e-03	8.738433e-03
378           	1.762174e-03	5.511392e-03	8.305371e-03
379           	1.771659e-03	5.363300e-03	8.855155e-03
380           	2.105316e-03	5.220764e-03	7.861669e-03
381           	1.846180e-03	5.082934e-03	8.615185e-03
382           	2.050765e-03	4.950150e-03	8.145429e-03
383           	1.732570e-03	4.821213e-03	8.610439e-03
384           	2.354185e-03	4.696890e-03	7.531029e-03
385           	1.668311e-03	4.576301e-03	8.481207e-03
386           	1.445655e-03	4.460007e-03	7.859105e-03
387           	1.594331e-03	4.347180e-03	8.441383e-03
388           	1.806826e-03	4.238367e-03	7.225114e-03
389           	1.511047e-03	4.132955e-03	7.958207e-03
390           	1.500577e-03	4.031133e-03	7.254701e-03
391           	1.452728e-03	3.932357e-03	7.854026e-03
392           	1.417003e-03	3.836891e-03	7.211736e-03
393           	2.367778e-03	3.744262e-03	7.752353e-03
394           	2.441911e-03	3.654753e-03	7.199535e-03
395           	1.859029e-03	3.567733e-03	8.193955e-03
396           	2.186027e-03	3.483615e-03	7.904490e-03
397           	2.092540e-03	3.401953e-03	8.025190e-03
398           	1.612356e-03	3.322958e-03	7.357490e-03
399           	2.751733e-03	3.246216e-03	8.143444e-03
400           	2.586548e-03	3.171744e-03	7.280013e-03
401           	1.948409e-03	3.099467e-03	8.423959e-03
402           	2.017509e-03	3.029479e-03	8.133561e-03
403           	1.622260e-03	2.961446e-03	8.994229e-03
404           	1.951154e-03	2.895476e-03	7.854547e-03
405           	3.624839e-03	2.831525e-03	7.556798e-03
406           	3.378990e-03	2.769782e-03	7.436039e-03
407           	2.889990e-03	2.709720e-03	9.244007e-03
408           	2.196172e-03	2.651627e-03	8.808984e-03
409           	1.772291e-03	2.594920e-03	9.157381e-03
410           	2.320607e-03	2.540094e-03	7.430075e-03
411           	3.234940e-03	2.486439e-03	6.785520e-03
412           	3.765709e-03	2.434313e-03	5.419815e-03
413           	3.268433e-03	2.383766e-03	6.133244e-03
414           	3.031954e-03	2.334871e-03	6.520738e-03
415           	1.488649e-03	2.287148e-03	6.909466e-03
416           	2.268849e-03	2.240816e-03	6.075538e-03
417           	3.137979e-03	2.195484e-03	5.450549e-03
418           	2.412255e-03	2.151706e-03	5.224388e-03
419           	3.555356e-03	2.108963e-03	6.184535e-03
420           	1.839809e-03	2.067527e-03	6.230304e-03
421           	1.204887e-03	2.027660e-03	6.182775e-03
422           	2.809568e-03	1.989038e-03	6.325616e-03
423           	4.447645e-03	1.951428e-03	6.972040e-03
424           	2.024940e-03	1.914862e-03	6.850371e-03
425           	3.182165e-03	1.879460e-03	7.582261e-03
426           	2.343562e-03	1.845150e-03	6.505734e-03
427           	1.898697e-03	1.811509e-03	7.228003e-03
428           	3.852789e-03	1.778644e-03	7.157833e-03
429           	4.553380e-03	1.746932e-03	6.832903e-03
430           	2.602010e-03	1.715802e-03	6.203938e-03
431           	2.530520e-03	1.685896e-03	7.045836e-03
432           	2.341487e-03	1.656956e-03	4.515442e-03
433           	2.191667e-03	1.629165e-03	6.012135e-03
434           	3.989619e-03	1.601761e-03	5.679798e-03
435           	4.403483e-03	1.575266e-03	6.096984e-03
436           	3.640680e-03	1.549605e-03	5.864730e-03
437           	6.761411e-03	1.524793e-03	5.566399e-03
438           	8.073353e-03	1.500676e-03	6.931671e-03
439           	5.945316e-03	1.476808e-03	8.661233e-03
440           	4.839417e-03	1.453582e-03	7.135207e-03
441           	5.695416e-03	1.431712e-03	5.108253e-03
442           	5.623289e-03	1.410608e-03	5.408091e-03
443           	4.283259e-03	1.390229e-03	3.038264e-03
444           	3.809946e-03	1.370259e-03	5.726212e-03
445           	4.707535e-03	1.350591e-03	5.211392e-03
446           	5.967133e-03	1.331694e-03	5.848450e-03
447           	5.747659e-03	1.312889e-03	5.676161e-03
448           	4.395984e-03	1.295261e-03	5.323396e-03
449           	4.379770e-03	1.278075e-03	3.304623e-03
450           	8.468683e-03	1.262043e-03	6.163969e-03
451           	4.897844e-03	1.245636e-03	8.010526e-03
452           	4.399478e-03	1.230536e-03	6.403788e-03
453           	3.654939e-03	1.215581e-03	5.537714e-03
454           	6.914794e-03	1.201016e-03	4.569818e-03
455           	7.275965e-03	1.186644e-03	7.395490e-03
456           	3.223060e-03	1.173267e-03	1.094105e-02
457           	2.447106e-03	1.160825e-03	1.102442e-02
458           	3.801074e-03	1.148382e-03	8.057048e-03
459           	3.501282e-03	1.136304e-03	6.799420e-03
460           	3.770661e-03	1.124469e-03	6.761495e-03
461           	4.679352e-03	1.112761e-03	3.714112e-03
462           	1.468830e-02	1.102049e-03	6.023533e-03
463           	1.631850e-02	1.091569e-03	9.422427e-03
464           	7.458154e-03	1.081421e-03	1.126106e-02
465           	3.481062e-03	1.072661e-03	1.448237e-02
466           	4.740834e-03	1.062967e-03	1.008100e-02
467           	5.614842e-03	1.053918e-03	5.963970e-03
468           	4.562015e-03	1.045208e-03	8.203811e-03
469           	8.144910e-03	1.036861e-03	1.037975e-02
470           	9.938650e-03	1.028701e-03	7.836504e-03
471           	8.167414e-03	1.020594e-03	9.313933e-03
472           	1.886887e-02	1.012776e-03	1.149376e-02
473           	4.999531e-02	1.005404e-03	1.720555e-02
474           	2.928688e-02	9.987353e-04	2.531503e-02
475           	1.905080e-02	9.906998e-04	2.999926e-02
476           	2.420008e-02	9.831972e-04	2.673708e-02
477           	2.329731e-02	9.776436e-04	2.298073e-02
478           	6.048232e-03	9.712733e-04	3.475927e-02
479           	4.586502e-03	9.656019e-04	3.474032e-02
480           	3.308388e-03	9.609443e-04	4.054867e-02
481           	3.991658e-03	9.560518e-04	3.396508e-02
482           	3.731848e-03	9.510814e-04	2.746980e-02
483           	4.060656e-03	9.467234e-04	2.483011e-02
484           	6.695360e-03	9.430473e-04	1.627288e-02
485           	7.578305e-03	9.375358e-04	1.327162e-02
486           	4.204377e-03	9.321891e-04	2.692529e-02
487           	2.506550e-03	9.281820e-04	5.572704e-02
488           	2.398449e-03	9.247688e-04	6.471602e-02
489           	2.285416e-03	9.219104e-04	4.669724e-02
490           	2.484630e-03	9.192007e-04	3.456600e-02
491           	1.786618e-03	9.165667e-04	2.947678e-02
492           	2.796065e-03	9.132092e-04	2.273098e-02
493           	2.529257e-03	9.109756e-04	1.758353e-02
494           	2.841257e-03	9.089438e-04	1.450163e-02
495           	1.935899e-03	9.073092e-04	1.116797e-02
496           	2.802063e-03	9.041898e-04	7.198080e-03
497           	2.176904e-03	9.016946e-04	1.290087e-02
498           	2.366257e-03	8.988193e-04	2.794500e-02
499           	1.955114e-03	8.977280e-04	1.743559e-02
500           	1.685764e-03	8.969284e-04	1.379661e-02
501           	2.241054e-03	8.951031e-04	1.034286e-02
502           	1.967411e-03	8.943547e-04	1.407258e-02
503           	2.455290e-03	8.927854e-04	9.955091e-03
504           	2.817275e-03	8.917015e-04	1.538152e-02
505           	3.938280e-03	8.896860e-04	1.429523e-02
506           	2.551271e-03	8.896051e-04	1.575235e-02
507           	4.200572e-03	8.876257e-04	1.964547e-02
508           	3.872262e-03	8.866430e-04	1.073004e-02
509           	2.923207e-03	8.857820e-04	2.529805e-02
510           	2.409022e-03	8.851707e-04	2.007225e-02
511           	2.324912e-03	8.861115e-04	1.065826e-02
512           	1.861935e-03	8.860080e-04	1.171363e-02
513           	1.670403e-03	8.858585e-04	9.219824e-03
514           	1.484940e-03	8.841192e-04	6.394725e-03
515           	1.967136e-03	8.840501e-04	1.007536e-02
516           	1.775804e-03	8.839875e-04	9.755155e-03
517           	1.405648e-03	8.846342e-04	7.589525e-03
518           	1.461262e-03	8.837577e-04	9.048396e-03
519           	2.165132e-03	8.841656e-04	1.010191e-02
520           	2.118058e-03	8.840390e-04	8.162882e-03
521           	1.568617e-03	8.844029e-04	6.051734e-03
522           	1.914585e-03	8.836739e-04	7.393744e-03
523           	1.848479e-03	8.844792e-04	7.754665e-03
524           	1.709401e-03	8.846093e-04	1.041590e-02
525           	1.722666e-03	8.843840e-04	8.135419e-03
526           	1.488272e-03	8.843002e-04	7.271762e-03
527           	2.873875e-03	8.846132e-04	1.064947e-02
528           	2.943634e-03	8.847758e-04	1.204574e-02
529           	3.056368e-03	8.844066e-04	2.133425e-02
530           	3.211293e-03	8.842870e-04	2.050294e-02
531           	2.464561e-03	8.860627e-04	1.069202e-02
532           	2.200744e-03	8.874737e-04	1.184984e-02
533           	1.646882e-03	8.872406e-04	1.614223e-02
534           	3.259694e-03	8.877061e-04	1.532402e-02
535           	2.045057e-03	8.892846e-04	9.347315e-03
536           	2.959441e-03	8.922140e-04	1.472406e-02
537           	1.595802e-03	8.913191e-04	6.347256e-03
538           	3.606979e-03	8.937145e-04	1.182365e-02
539           	3.243132e-03	8.963407e-04	1.758026e-02
540           	2.481915e-03	8.995995e-04	1.928956e-02
541           	3.417905e-03	8.989558e-04	1.307218e-02
542           	3.615040e-03	9.023457e-04	1.084827e-02
543           	2.581516e-03	9.020651e-04	1.364593e-02
544           	2.585332e-03	9.031793e-04	1.319553e-02
545           	1.390253e-03	9.053657e-04	1.484181e-02
546           	1.889234e-03	9.073368e-04	1.174364e-02
547           	2.125194e-03	9.087733e-04	1.162288e-02
548           	1.978462e-03	9.099009e-04	1.107198e-02
549           	2.468196e-03	9.100886e-04	1.342184e-02
550           	3.473170e-03	9.129730e-04	1.701028e-02
551           	1.777028e-03	9.128869e-04	8.594763e-03
552           	2.167440e-03	9.139930e-04	1.361311e-02
553           	3.375273e-03	9.166108e-04	1.445042e-02