# Residuals   
# Time        	p             	Ux            	Uy            
0             	N/A	N/A
1             	9.999965e-01	0.000000e+00	0.000000e+00
2             	1.000000e+00	9.946900e-01	1.000000e+00
3             	2.024276e-01	1.941318e-01	6.656893e-01
4             	1.282042e-01	5.636538e-02	4.288214e-01
5             	1.653335e-01	7.284598e-02	6.388655e-01
6             	3.700656e-01	1.069949e-01	6.191993e-01
7             	4.861769e-01	1.331920e-01	5.937434e-01
8             	3.220078e-01	1.335904e-01	5.915711e-01
9             	4.171717e-01	1.470884e-01	5.947193e-01
10            	2.592494e-01	7.920496e-02	5.627326e-01
11            	3.022523e-01	4.838827e-02	5.247018e-01
12            	2.465809e-01	3.720952e-02	4.143516e-01
13            	2.574254e-01	3.158818e-02	3.758087e-01
14            	1.550882e-01	2.680535e-02	3.666157e-01
15            	2.483973e-01	2.462328e-02	4.212810e-01
16            	1.860426e-01	2.242366e-02	3.556498e-01
17            	8.983913e-02	1.828510e-02	3.398602e-01
18            	8.736339e-02	1.668289e-02	3.795393e-01
19            	1.482801e-01	1.486425e-02	2.962907e-01
20            	1.910973e-01	1.398954e-02	2.598288e-01
21            	2.207387e-01	1.292853e-02	2.700203e-01
22            	1.205304e-01	1.179111e-02	2.611235e-01
23            	3.928171e-02	1.115262e-02	2.299240e-01
24            	2.491234e-02	1.058896e-02	2.184366e-01
25            	1.695070e-02	1.012419e-02	2.039640e-01
26            	1.337268e-02	9.712057e-03	1.885205e-01
27            	1.022391e-02	9.359568e-03	1.666284e-01
28            	8.813813e-03	9.038048e-03	1.460835e-01
29            	7.494599e-03	8.750735e-03	1.325353e-01
30            	7.726340e-03	8.459122e-03	1.107662e-01
31            	7.949875e-03	8.204893e-03	9.873793e-02
32            	8.210417e-03	7.942418e-03	8.942426e-02
33            	9.819079e-03	7.715432e-03	7.832719e-02
34            	1.275190e-02	7.440988e-03	6.794654e-02
35            	8.334325e-03	7.136245e-03	5.475978e-02
36            	1.090422e-02	6.868377e-03	4.136658e-02
37            	6.546224e-03	6.643267e-03	3.153807e-02
38            	6.747387e-03	6.429079e-03	2.869132e-02
39            	3.771846e-03	6.231583e-03	2.791370e-02
40            	3.468713e-03	6.065684e-03	2.847965e-02
41            	2.581363e-03	5.904596e-03	2.828623e-02
42            	2.823934e-03	5.768139e-03	2.656412e-02
43            	2.174569e-03	5.637675e-03	2.725369e-02
44            	3.191365e-03	5.525320e-03	2.585407e-02
45            	1.851294e-03	5.427305e-03	2.756177e-02
46            	3.912491e-03	5.332478e-03	2.491438e-02
47            	2.133206e-03	5.251898e-03	2.587424e-02
48            	4.710226e-03	5.168622e-03	2.317022e-02
49            	2.551301e-03	5.099342e-03	2.509711e-02
50            	5.716275e-03	5.028629e-03	2.220821e-02
51            	3.060461e-03	4.968994e-03	2.447204e-02
52            	6.982088e-03	4.905233e-03	2.150182e-02
53            	3.736586e-03	4.859918e-03	2.473631e-02
54            	8.454053e-03	4.802293e-03	2.133042e-02
55            	4.397020e-03	4.759578e-03	2.517107e-02
56            	1.017729e-02	4.704848e-03	2.133787e-02
57            	7.190633e-03	4.664435e-03	2.558411e-02
58            	5.458595e-03	4.613707e-03	2.792117e-02
59            	9.086252e-03	4.567230e-03	2.464176e-02
60            	5.574978e-03	4.514083e-03	2.906610e-02
61            	2.033147e-03	4.469591e-03	2.409252e-02
62            	6.669861e-03	4.423055e-03	2.177544e-02
63            	1.962489e-03	4.365799e-03	2.799777e-02
64            	2.096171e-03	4.323386e-03	2.416143e-02
65            	2.999080e-03	4.274637e-03	2.051208e-02
66            	3.603947e-03	4.228824e-03	2.026479e-02
67            	3.252741e-03	4.185701e-03	2.143431e-02
68            	2.709651e-03	4.143475e-03	2.319145e-02
69            	2.196721e-03	4.102460e-03	2.415613e-02
70            	1.891248e-03	4.062419e-03	2.441120e-02
71            	1.732139e-03	4.024172e-03	2.421130e-02
72            	1.629294e-03	3.987621e-03	2.381171e-02
73            	1.570631e-03	3.951154e-03	2.325366e-02
74            	1.625857e-03	3.915343e-03	2.262439e-02
75            	1.645535e-03	3.879556e-03	2.199311e-02
76            	1.708112e-03	3.844450e-03	2.137962e-02
77            	1.782342e-03	3.809905e-03	2.073307e-02
78            	1.807794e-03	3.776616e-03	2.017255e-02
79            	1.827769e-03	3.743375e-03	1.971681e-02
80            	1.850094e-03	3.710748e-03	1.939075e-02
81            	2.060830e-03	3.678771e-03	1.916485e-02
82            	2.146711e-03	3.647280e-03	1.885943e-02
83            	2.208909e-03	3.616004e-03	1.860413e-02
84            	2.327121e-03	3.585306e-03	1.833675e-02
85            	2.439680e-03	3.555507e-03	1.817118e-02
86            	2.565566e-03	3.526611e-03	1.793317e-02
87            	2.737745e-03	3.497916e-03	1.775704e-02
88            	3.179231e-03	3.470295e-03	1.773948e-02
89            	3.369197e-03	3.443118e-03	1.764936e-02
90            	3.438725e-03	3.416442e-03	1.751415e-02
91            	3.747123e-03	3.390139e-03	1.741235e-02
92            	4.402722e-03	3.364725e-03	1.727574e-02
93            	4.756356e-03	3.339750e-03	1.711840e-02
94            	5.694337e-03	3.315689e-03	1.703082e-02
95            	8.520871e-03	3.292968e-03	1.713852e-02
96            	1.109918e-02	3.271114e-03	1.714944e-02
97            	1.737140e-02	3.249940e-03	1.704592e-02
98            	1.609617e-02	3.229516e-03	1.680771e-02
99            	1.010491e-02	3.209998e-03	1.670795e-02
100           	7.708505e-03	3.191026e-03	1.664785e-02
101           	6.647481e-03	3.171658e-03	1.695743e-02
102           	6.125041e-03	3.153827e-03	1.731424e-02
103           	5.667204e-03	3.136674e-03	1.743645e-02
104           	4.533939e-03	3.120416e-03	1.745762e-02
105           	3.693861e-03	3.104874e-03	1.745144e-02
106           	3.231159e-03	3.089841e-03	1.721982e-02
107           	2.775331e-03	3.075239e-03	1.698697e-02
108           	2.726699e-03	3.061269e-03	1.686860e-02
109           	2.824409e-03	3.047771e-03	1.699865e-02
110           	2.516203e-03	3.034652e-03	1.688527e-02
111           	2.348929e-03	3.021662e-03	1.678573e-02
112           	2.118218e-03	3.009157e-03	1.672120e-02
113           	1.869095e-03	2.996758e-03	1.665595e-02
114           	1.711431e-03	2.984552e-03	1.660331e-02
115           	2.011853e-03	2.972702e-03	1.645153e-02
116           	1.913208e-03	2.961397e-03	1.627546e-02
117           	1.816670e-03	2.950572e-03	1.630895e-02
118           	1.645639e-03	2.940095e-03	1.630436e-02
119           	1.457657e-03	2.929825e-03	1.628050e-02
120           	1.362522e-03	2.919885e-03	1.627957e-02
121           	1.283799e-03	2.910186e-03	1.602574e-02
122           	1.649646e-03	2.900852e-03	1.597974e-02
123           	1.492798e-03	2.891822e-03	1.590289e-02
124           	1.406918e-03	2.882989e-03	1.600807e-02
125           	1.285926e-03	2.874275e-03	1.602457e-02
126           	1.197573e-03	2.865593e-03	1.599291e-02
127           	1.116336e-03	2.857025e-03	1.574323e-02
128           	1.194727e-03	2.848710e-03	1.558675e-02
129           	1.493406e-03	2.840965e-03	1.575249e-02
130           	1.391085e-03	2.833627e-03	1.558663e-02
131           	1.298329e-03	2.826425e-03	1.543238e-02
132           	1.196858e-03	2.819429e-03	1.542597e-02
133           	1.148369e-03	2.812638e-03	1.537075e-02
134           	1.070488e-03	2.805970e-03	1.531485e-02
135           	1.167590e-03	2.799330e-03	1.532884e-02
136           	1.425062e-03	2.792971e-03	1.531987e-02
137           	1.365279e-03	2.786770e-03	1.528474e-02
138           	1.283459e-03	2.780653e-03	1.533257e-02
139           	1.217578e-03	2.774676e-03	1.521919e-02
140           	1.132649e-03	2.769194e-03	1.510381e-02
141           	1.051078e-03	2.763822e-03	1.505682e-02
142           	1.235116e-03	2.758528e-03	1.491407e-02
143           	1.421345e-03	2.753396e-03	1.492847e-02
144           	1.326434e-03	2.748368e-03	1.497192e-02
145           	1.238335e-03	2.743436e-03	1.479351e-02
146           	1.160119e-03	2.738529e-03	1.458583e-02
147           	1.046220e-03	2.733620e-03	1.446062e-02
148           	9.695088e-04	2.728793e-03	1.439539e-02
149           	1.027298e-03	2.724143e-03	1.427141e-02
150           	1.383381e-03	2.720117e-03	1.447674e-02
151           	1.285413e-03	2.716238e-03	1.447996e-02
152           	1.195771e-03	2.712432e-03	1.442982e-02
153           	1.091838e-03	2.708609e-03	1.437458e-02
154           	1.014244e-03	2.704784e-03	1.414282e-02
155           	9.720823e-04	2.700954e-03	1.397379e-02
156           	8.931529e-04	2.697149e-03	1.396357e-02
157           	1.537827e-03	2.693513e-03	1.397667e-02
158           	1.373296e-03	2.689984e-03	1.401576e-02
159           	1.261528e-03	2.686853e-03	1.406984e-02
160           	1.162358e-03	2.683978e-03	1.402733e-02
161           	1.084307e-03	2.681032e-03	1.388460e-02
162           	9.979532e-04	2.678013e-03	1.386386e-02
163           	9.296080e-04	2.675000e-03	1.368100e-02
164           	1.647134e-03	2.672050e-03	1.365463e-02
165           	1.413847e-03	2.669241e-03	1.387500e-02
166           	1.327151e-03	2.666331e-03	1.376311e-02
167           	1.241947e-03	2.663272e-03	1.357347e-02
168           	1.097972e-03	2.660872e-03	1.350101e-02
169           	1.008677e-03	2.658687e-03	1.340888e-02
170           	9.213921e-04	2.656465e-03	1.323209e-02
171           	1.540279e-03	2.654273e-03	1.328251e-02
172           	1.391756e-03	2.652237e-03	1.343631e-02
173           	1.310926e-03	2.650177e-03	1.345542e-02
174           	1.210594e-03	2.647875e-03	1.339843e-02
175           	1.150961e-03	2.645482e-03	1.328728e-02
176           	1.073048e-03	2.643151e-03	1.302112e-02
177           	9.668859e-04	2.641605e-03	1.302966e-02
178           	1.006881e-03	2.640123e-03	1.284494e-02
179           	1.602343e-03	2.638729e-03	1.282092e-02
180           	1.413084e-03	2.637401e-03	1.306790e-02
181           	1.308924e-03	2.635863e-03	1.308507e-02
182           	1.223813e-03	2.634161e-03	1.283835e-02
183           	1.107793e-03	2.632423e-03	1.278374e-02
184           	1.053399e-03	2.630719e-03	1.266194e-02
185           	9.738333e-04	2.629128e-03	1.242043e-02
186           	1.755355e-03	2.628305e-03	1.246189e-02
187           	1.492807e-03	2.627593e-03	1.257753e-02
188           	1.374832e-03	2.626711e-03	1.255068e-02
189           	1.220614e-03	2.625635e-03	1.249580e-02
190           	1.211364e-03	2.624501e-03	1.241505e-02
191           	1.114210e-03	2.623384e-03	1.215444e-02
192           	1.023029e-03	2.622302e-03	1.207962e-02
193           	1.863115e-03	2.621301e-03	1.204014e-02
194           	1.572743e-03	2.620399e-03	1.209420e-02
195           	1.433321e-03	2.620165e-03	1.221014e-02
196           	1.245624e-03	2.619765e-03	1.206291e-02
197           	1.150820e-03	2.619239e-03	1.185324e-02
198           	1.030332e-03	2.618692e-03	1.175772e-02
199           	9.585083e-04	2.618175e-03	1.163333e-02
200           	9.564432e-04	2.617694e-03	1.140397e-02
201           	1.894226e-03	2.617338e-03	1.148852e-02
202           	1.588742e-03	2.616256e-03	1.154430e-02
203           	1.484828e-03	2.616448e-03	1.148651e-02
204           	1.314895e-03	2.616579e-03	1.139311e-02
205           	1.188017e-03	2.616673e-03	1.127330e-02
206           	1.091005e-03	2.616761e-03	1.106621e-02
207           	9.600752e-04	2.616885e-03	1.104641e-02
208           	1.795927e-03	2.617113e-03	1.094210e-02
209           	1.528812e-03	2.616723e-03	1.092973e-02
210           	1.387528e-03	2.615876e-03	1.101107e-02
211           	1.583612e-03	2.616433e-03	1.105811e-02
212           	1.395140e-03	2.617123e-03	1.077275e-02
213           	1.250711e-03	2.617807e-03	1.061647e-02
214           	1.130954e-03	2.618526e-03	1.047250e-02
215           	1.954725e-03	2.619304e-03	1.031043e-02
216           	1.629808e-03	2.619778e-03	1.034581e-02
217           	1.462070e-03	2.619491e-03	1.044039e-02
218           	1.295629e-03	2.619312e-03	1.030578e-02
219           	1.640283e-03	2.619976e-03	1.043352e-02
220           	1.387706e-03	2.621227e-03	1.017839e-02
221           	1.326320e-03	2.622490e-03	9.970748e-03
222           	2.068099e-03	2.623797e-03	9.885454e-03
223           	1.734024e-03	2.625008e-03	9.797584e-03
224           	1.590565e-03	2.625236e-03	9.837116e-03
225           	1.392457e-03	2.625570e-03	9.832698e-03
226           	1.220323e-03	2.626115e-03	9.728710e-03
227           	1.710412e-03	2.626855e-03	9.797083e-03
228           	1.481746e-03	2.628554e-03	9.684162e-03
229           	2.285224e-03	2.630392e-03	9.525825e-03
230           	1.952801e-03	2.632162e-03	9.348700e-03
231           	1.755319e-03	2.632888e-03	9.327033e-03
232           	1.483076e-03	2.633697e-03	9.297106e-03
233           	1.336060e-03	2.634705e-03	9.201805e-03
234           	1.243215e-03	2.635908e-03	9.130587e-03
235           	1.833547e-03	2.637258e-03	9.218984e-03
236           	2.528981e-03	2.638695e-03	9.156214e-03
237           	2.222579e-03	2.640839e-03	9.006314e-03
238           	2.033254e-03	2.642013e-03	9.031836e-03
239           	1.758154e-03	2.643290e-03	8.929191e-03
240           	1.547090e-03	2.644782e-03	8.815883e-03
241           	1.380393e-03	2.646461e-03	8.677425e-03
242           	1.217491e-03	2.648310e-03	8.625953e-03
243           	3.028210e-03	2.648664e-03	8.807478e-03
244           	2.638555e-03	2.650971e-03	8.843720e-03
245           	2.474927e-03	2.652632e-03	8.904180e-03
246           	2.119730e-03	2.654415e-03	8.756811e-03
247           	1.896126e-03	2.656400e-03	8.662371e-03
248           	1.741900e-03	2.658578e-03	8.505811e-03
249           	1.529960e-03	2.660913e-03	8.376363e-03
250           	2.361682e-03	2.660233e-03	8.198526e-03
251           	3.285830e-03	2.662482e-03	8.390832e-03
252           	3.070570e-03	2.664582e-03	8.614533e-03
253           	2.804112e-03	2.666882e-03	8.628360e-03
254           	2.438479e-03	2.669381e-03	8.441887e-03
255           	2.228708e-03	2.672055e-03	8.319412e-03
256           	3.189245e-03	2.673079e-03	8.153792e-03
257           	2.903187e-03	2.672753e-03	8.108868e-03
258           	2.660689e-03	2.675135e-03	8.079649e-03
259           	4.254247e-03	2.677680e-03	8.268715e-03
260           	3.933743e-03	2.680501e-03	8.479104e-03
261           	3.839543e-03	2.683509e-03	8.561402e-03
262           	4.900073e-03	2.686189e-03	8.411194e-03
263           	4.358983e-03	2.684374e-03	8.296723e-03
264           	4.568765e-03	2.686124e-03	8.160283e-03
265           	4.500314e-03	2.688840e-03	8.030544e-03
266           	5.129711e-03	2.691757e-03	8.063964e-03
267           	7.771379e-03	2.695078e-03	8.224805e-03
268           	8.139486e-03	2.698619e-03	8.404284e-03
269           	9.269728e-03	2.698696e-03	8.413223e-03
270           	9.756498e-03	2.700744e-03	8.241318e-03
271           	1.295290e-02	2.703172e-03	8.106009e-03
272           	2.163266e-02	2.706027e-03	7.969967e-03
273           	1.145420e-02	2.709178e-03	7.870015e-03
274           	1.881426e-02	2.712599e-03	8.018912e-03
275           	1.611152e-02	2.714767e-03	8.167517e-03
276           	1.184748e-02	2.717836e-03	8.258665e-03
277           	8.103330e-03	2.720845e-03	8.107458e-03
278           	5.166918e-03	2.724028e-03	7.917337e-03
279           	3.755183e-03	2.727390e-03	7.741952e-03
280           	5.590114e-03	2.730936e-03	7.836804e-03
281           	6.108530e-03	2.734670e-03	7.912297e-03
282           	4.604776e-03	2.738186e-03	7.963707e-03
283           	3.590972e-03	2.741540e-03	7.793763e-03
284           	2.725540e-03	2.744959e-03	7.585641e-03
285           	3.935597e-03	2.748515e-03	7.655724e-03
286           	4.033458e-03	2.752224e-03	7.573751e-03
287           	3.122162e-03	2.755707e-03	7.609246e-03
288           	3.900260e-03	2.759025e-03	7.738040e-03
289           	4.694309e-03	2.762267e-03	7.831293e-03
290           	3.202377e-03	2.764830e-03	7.575522e-03
291           	2.336778e-03	2.766327e-03	7.345086e-03
292           	1.807001e-03	2.766940e-03	7.080108e-03
293           	1.471902e-03	2.766989e-03	6.849519e-03
294           	1.202173e-03	2.767168e-03	6.697056e-03
295           	9.940267e-04	2.767244e-03	6.619695e-03
296           	8.135997e-04	2.767148e-03	6.559522e-03
297           	7.119205e-04	2.766940e-03	6.498650e-03
298           	6.297917e-04	2.766662e-03	6.436978e-03
299           	5.638526e-04	2.766339e-03	6.359972e-03
300           	4.997740e-04	2.765992e-03	6.273384e-03
301           	4.499020e-04	2.765632e-03	6.186492e-03
302           	4.093019e-04	2.765269e-03	6.092883e-03
303           	3.737346e-04	2.764989e-03	6.009686e-03
304           	3.514834e-04	2.764852e-03	5.926177e-03
305           	3.208329e-04	2.764709e-03	5.840930e-03
306           	2.960684e-04	2.764560e-03	5.762381e-03
307           	2.805489e-04	2.764410e-03	5.684701e-03
308           	2.665280e-04	2.764262e-03	5.592037e-03
309           	2.501916e-04	2.764116e-03	5.516323e-03
310           	2.450279e-04	2.763975e-03	5.437203e-03
311           	2.353552e-04	2.763838e-03	5.355169e-03
312           	2.326219e-04	2.763707e-03	5.280849e-03
313           	2.222971e-04	2.763581e-03	5.208370e-03
314           	2.143224e-04	2.763463e-03	5.120379e-03
315           	2.084793e-04	2.763350e-03	5.054921e-03
316           	2.080515e-04	2.763245e-03	4.979213e-03
317           	2.006991e-04	2.763147e-03	4.899678e-03
318           	1.967818e-04	2.763055e-03	4.829672e-03
319           	1.937096e-04	2.762970e-03	4.757085e-03
320           	1.888250e-04	2.762891e-03	4.691538e-03
321           	1.878974e-04	2.762819e-03	4.627473e-03
322           	1.821162e-04	2.762754e-03	4.561262e-03
323           	1.747287e-04	2.762695e-03	4.507341e-03
324           	1.735013e-04	2.762642e-03	4.444757e-03
325           	1.667639e-04	2.762595e-03	4.374697e-03
326           	1.616640e-04	2.762555e-03	4.317174e-03
327           	1.584380e-04	2.762520e-03	4.249211e-03
328           	1.523927e-04	2.762490e-03	4.193508e-03
329           	1.466902e-04	2.762465e-03	4.129683e-03
330           	1.427104e-04	2.762446e-03	4.063920e-03
331           	1.341163e-04	2.762430e-03	4.001484e-03
332           	1.320997e-04	2.762421e-03	3.937510e-03
333           	1.238387e-04	2.762415e-03	3.873961e-03
334           	1.301275e-04	2.762413e-03	3.809468e-03
335           	1.222599e-04	2.762416e-03	3.740879e-03
336           	1.186541e-04	2.762422e-03	3.684810e-03
337           	1.223673e-04	2.762432e-03	3.627902e-03
338           	1.208518e-04	2.762445e-03	3.578157e-03
339           	1.164807e-04	2.762462e-03	3.529539e-03
340           	1.125094e-04	2.762482e-03	3.481862e-03
341           	1.089583e-04	2.762506e-03	3.428383e-03
342           	1.034474e-04	2.762532e-03	3.378107e-03
343           	1.007684e-04	2.762563e-03	3.325202e-03
344           	9.764507e-05	2.762628e-03	3.273257e-03
345           	9.430933e-05	2.762698e-03	3.221690e-03
346           	9.285321e-05	2.762769e-03	3.173243e-03
347           	9.078372e-05	2.762842e-03	3.124681e-03
348           	8.607170e-05	2.762916e-03	3.076411e-03
349           	8.427810e-05	2.762991e-03	3.031166e-03
350           	8.210105e-05	2.763066e-03	2.992092e-03
351           	7.677226e-05	2.763143e-03	2.957180e-03
352           	7.002043e-05	2.763220e-03	2.923018e-03
353           	6.582396e-05	2.763298e-03	2.891612e-03
354           	6.296146e-05	2.763377e-03	2.859685e-03
355           	5.979519e-05	2.763456e-03	2.830114e-03
356           	5.662961e-05	2.763535e-03	2.797768e-03
357           	5.524213e-05	2.763615e-03	2.765912e-03
358           	5.380548e-05	2.763696e-03	2.735221e-03
359           	5.258584e-05	2.763777e-03	2.708947e-03
360           	5.127416e-05	2.763858e-03	2.682617e-03
361           	5.144587e-05	2.763939e-03	2.661472e-03
362           	4.892368e-05	2.764020e-03	2.636880e-03
363           	4.787577e-05	2.764102e-03	2.618509e-03
364           	4.677464e-05	2.764184e-03	2.598902e-03
365           	4.585415e-05	2.764265e-03	2.584267e-03
366           	4.421755e-05	2.764347e-03	2.567586e-03
367           	4.384215e-05	2.764428e-03	2.555793e-03
368           	4.253154e-05	2.764509e-03	2.542620e-03
369           	4.246339e-05	2.764590e-03	2.532595e-03
370           	4.118039e-05	2.764671e-03	2.522033e-03
371           	4.103911e-05	2.764751e-03	2.513157e-03
372           	4.007858e-05	2.764831e-03	2.505142e-03
373           	3.957677e-05	2.764911e-03	2.498293e-03
374           	3.859536e-05	2.764990e-03	2.492262e-03
375           	3.829581e-05	2.765069e-03	2.487139e-03
376           	3.755985e-05	2.765147e-03	2.483679e-03
377           	3.701932e-05	2.765225e-03	2.480901e-03
378           	3.651025e-05	2.765302e-03	2.478254e-03
379           	3.599048e-05	2.765379e-03	2.475625e-03
380           	3.529385e-05	2.765455e-03	2.473603e-03
381           	3.502471e-05	2.765530e-03	2.471851e-03
382           	3.442756e-05	2.765605e-03	2.470512e-03
383           	3.343757e-05	2.765679e-03	2.468876e-03
384           	3.355265e-05	2.765752e-03	2.468879e-03
385           	3.290320e-05	2.765824e-03	2.467861e-03
386           	3.264629e-05	2.765896e-03	2.467896e-03
387           	3.324343e-05	2.765967e-03	2.468266e-03
388           	3.279313e-05	2.766038e-03	2.469264e-03
389           	3.219725e-05	2.766107e-03	2.470670e-03
390           	3.237750e-05	2.766176e-03	2.471506e-03
391           	3.202306e-05	2.766243e-03	2.471578e-03
392           	3.181831e-05	2.766311e-03	2.471991e-03
393           	3.240431e-05	2.766377e-03	2.472876e-03
394           	3.267288e-05	2.766442e-03	2.473357e-03
395           	3.413661e-05	2.766507e-03	2.475802e-03
396           	3.451407e-05	2.766571e-03	2.477250e-03
397           	3.490738e-05	2.766634e-03	2.478780e-03
398           	3.544873e-05	2.766696e-03	2.480313e-03
399           	3.547251e-05	2.766757e-03	2.482204e-03
400           	3.588510e-05	2.766817e-03	2.486317e-03
401           	3.682418e-05	2.766877e-03	2.489967e-03
402           	3.711960e-05	2.766936e-03	2.491785e-03
403           	3.746241e-05	2.766994e-03	2.493552e-03
404           	3.823507e-05	2.767051e-03	2.496301e-03
405           	3.875016e-05	2.767107e-03	2.498678e-03
406           	4.054500e-05	2.767163e-03	2.501543e-03
407           	3.962155e-05	2.767217e-03	2.505288e-03
408           	4.055764e-05	2.767271e-03	2.508368e-03
409           	4.181211e-05	2.767324e-03	2.515014e-03
410           	4.251103e-05	2.767376e-03	2.519687e-03
411           	4.177291e-05	2.767428e-03	2.520828e-03
412           	4.208012e-05	2.767478e-03	2.524027e-03
413           	4.237460e-05	2.767528e-03	2.527600e-03
414           	4.371490e-05	2.767577e-03	2.532173e-03
415           	4.438176e-05	2.767626e-03	2.536600e-03
416           	4.746038e-05	2.767673e-03	2.540485e-03
417           	4.651177e-05	2.767720e-03	2.550623e-03
418           	4.549640e-05	2.767767e-03	2.544091e-03
419           	5.013646e-05	2.767812e-03	2.558359e-03
420           	4.937324e-05	2.767857e-03	2.562116e-03
421           	5.135354e-05	2.767901e-03	2.557064e-03
422           	4.877318e-05	2.767945e-03	2.575781e-03
423           	4.175188e-05	2.767987e-03	2.570250e-03
424           	5.043854e-05	2.768030e-03	2.582444e-03
425           	4.995318e-05	2.768071e-03	2.588843e-03
426           	5.355159e-05	2.768112e-03	2.584417e-03
427           	4.753200e-05	2.768152e-03	2.601993e-03
428           	4.880349e-05	2.768192e-03	2.601181e-03
429           	5.575659e-05	2.768232e-03	2.607997e-03
430           	5.630200e-05	2.768270e-03	2.616313e-03
431           	5.576958e-05	2.768308e-03	2.623042e-03
432           	5.238859e-05	2.768346e-03	2.631784e-03
433           	5.556116e-05	2.768383e-03	2.625229e-03
434           	5.508216e-05	2.768419e-03	2.636117e-03
435           	6.366581e-05	2.768455e-03	2.648336e-03
436           	6.221356e-05	2.768491e-03	2.656707e-03
437           	5.127886e-05	2.768526e-03	2.653432e-03
438           	5.123223e-05	2.768561e-03	2.670045e-03
439           	5.735461e-05	2.768595e-03	2.674118e-03
440           	8.212516e-05	2.768629e-03	2.672116e-03
441           	7.693984e-05	2.768663e-03	2.660239e-03
442           	6.090304e-05	2.768696e-03	2.675385e-03
443           	5.935381e-05	2.768728e-03	2.692108e-03
444           	6.704480e-05	2.768761e-03	2.695152e-03
445           	4.996579e-05	2.768793e-03	2.689748e-03
446           	5.698062e-05	2.768824e-03	2.720180e-03
447           	5.768752e-05	2.768856e-03	2.715375e-03
448           	7.413693e-05	2.768887e-03	2.718131e-03
449           	5.243958e-05	2.768918e-03	2.713105e-03
450           	6.543693e-05	2.768948e-03	2.737587e-03
451           	8.117513e-05	2.768979e-03	2.734956e-03
452           	5.032719e-05	2.769009e-03	2.724568e-03
453           	7.414839e-05	2.769039e-03	2.761124e-03
454           	8.757781e-05	2.769069e-03	2.751620e-03
455           	5.935516e-05	2.769098e-03	2.736313e-03
456           	7.546604e-05	2.769128e-03	2.771876e-03
457           	8.471801e-05	2.769158e-03	2.778592e-03
458           	7.274558e-05	2.769187e-03	2.744435e-03
459           	7.335663e-05	2.769216e-03	2.767944e-03
460           	8.074660e-05	2.769246e-03	2.791575e-03
461           	8.106164e-05	2.769275e-03	2.760463e-03
462           	7.176158e-05	2.769304e-03	2.772749e-03
463           	7.567862e-05	2.769333e-03	2.807476e-03
464           	8.262009e-05	2.769362e-03	2.780920e-03
465           	6.578844e-05	2.769392e-03	2.782459e-03
466           	7.429774e-05	2.769421e-03	2.818633e-03
467           	8.345422e-05	2.769450e-03	2.801423e-03
468           	6.012091e-05	2.769479e-03	2.797936e-03
469           	7.822849e-05	2.769509e-03	2.829291e-03
470           	9.548508e-05	2.769539e-03	2.815227e-03
471           	6.066758e-05	2.769568e-03	2.805761e-03
472           	8.557269e-05	2.769598e-03	2.845453e-03
473           	9.915619e-05	2.769628e-03	2.834054e-03
474           	5.851587e-05	2.769658e-03	2.819156e-03
475           	8.616547e-05	2.769688e-03	2.858825e-03
476           	9.051718e-05	2.769719e-03	2.848122e-03
477           	6.269287e-05	2.769749e-03	2.828417e-03
478           	8.283894e-05	2.769780e-03	2.868776e-03
479           	9.452316e-05	2.769811e-03	2.873612e-03
480           	1.686942e-04	2.769842e-03	2.854559e-03
481           	1.731876e-04	2.769875e-03	2.881609e-03
482           	1.384997e-04	2.769904e-03	2.880865e-03
483           	1.070145e-04	2.769930e-03	2.866527e-03
484           	1.124967e-04	2.769965e-03	2.894805e-03
485           	1.079940e-04	2.769994e-03	2.888838e-03
486           	9.319286e-05	2.770025e-03	2.885889e-03
487           	8.655118e-05	2.770057e-03	2.907415e-03
488           	8.659249e-05	2.770089e-03	2.897869e-03
489           	7.563443e-05	2.770120e-03	2.899029e-03
490           	8.359778e-05	2.770153e-03	2.910434e-03
491           	9.448038e-05	2.770185e-03	2.911579e-03
492           	7.887504e-05	2.770218e-03	2.910903e-03
493           	8.244225e-05	2.770251e-03	2.935036e-03
494           	9.166612e-05	2.770285e-03	2.927126e-03
495           	7.759332e-05	2.770319e-03	2.924221e-03
496           	8.109095e-05	2.770354e-03	2.947325e-03
497           	8.010979e-05	2.770389e-03	2.936461e-03
498           	8.400088e-05	2.770424e-03	2.936817e-03
499           	8.345054e-05	2.770460e-03	2.948475e-03
500           	7.948467e-05	2.770496e-03	2.946606e-03
501           	7.722306e-05	2.770533e-03	2.962672e-03
502           	8.120150e-05	2.770569e-03	2.958857e-03
503           	8.841553e-05	2.770607e-03	2.961046e-03
504           	8.516638e-05	2.770645e-03	2.963941e-03
505           	8.417201e-05	2.770684e-03	2.983408e-03
506           	9.061205e-05	2.770723e-03	2.975583e-03
507           	8.337443e-05	2.770763e-03	2.973642e-03
508           	8.400673e-05	2.770803e-03	2.992433e-03
509           	9.250227e-05	2.770844e-03	2.983795e-03
510           	8.966945e-05	2.770886e-03	2.984215e-03
511           	8.575291e-05	2.770928e-03	3.003091e-03
512           	8.317747e-05	2.770970e-03	2.995677e-03
513           	8.982790e-05	2.771014e-03	2.998232e-03
514           	8.469217e-05	2.771058e-03	3.008109e-03
515           	9.128784e-05	2.771102e-03	3.006674e-03
516           	9.134069e-05	2.771147e-03	3.012302e-03
517           	8.584372e-05	2.771193e-03	3.011502e-03
518           	9.107901e-05	2.771240e-03	3.028562e-03
519           	9.560876e-05	2.771287e-03	3.023928e-03
520           	9.103713e-05	2.771335e-03	3.021243e-03
521           	9.139322e-05	2.771384e-03	3.039585e-03
522           	9.722844e-05	2.771434e-03	3.029629e-03
523           	9.596207e-05	2.771484e-03	3.028861e-03
524           	9.382730e-05	2.771535e-03	3.049106e-03
525           	9.753116e-05	2.771587e-03	3.039065e-03
526           	1.102795e-04	2.771698e-03	3.038674e-03
527           	2.769881e-03	2.787030e-03	3.017332e-03
528           	3.071565e-03	2.794072e-03	3.018025e-03
529           	2.232570e-03	2.822459e-03	3.000124e-03
530           	3.120494e-03	2.767875e-03	6.028649e-03
531           	3.718886e-03	2.809174e-03	4.385128e-03
532           	1.020932e-02	2.828391e-03	2.400563e-03
533           	2.288947e-03	2.771600e-03	1.848411e-03
534           	1.858521e-03	2.823873e-03	1.912078e-03
535           	2.076579e-03	2.771399e-03	2.281179e-03
536           	1.501131e-03	2.806618e-03	3.797939e-03
537           	5.907088e-03	2.829761e-03	3.773772e-03
538           	1.363972e-03	2.771263e-03	7.703345e-03
539           	2.816002e-03	2.847206e-03	5.842135e-03
540           	2.683887e-03	2.770073e-03	5.027159e-03
541           	2.765814e-03	2.857266e-03	2.607117e-03
542           	2.475692e-03	2.768833e-03	3.596869e-03
543           	3.580364e-03	2.858648e-03	2.881541e-03
544           	4.981498e-03	2.769397e-03	2.056496e-03
545           	4.610792e-03	2.860026e-03	1.966521e-03
546           	3.105654e-03	2.769292e-03	3.790445e-03
547           	1.865823e-03	2.859965e-03	3.289417e-03
548           	2.850994e-03	2.769557e-03	2.533931e-03
549           	7.490961e-03	2.860144e-03	2.082422e-03
550           	5.813894e-03	2.769672e-03	3.091798e-03
551           	1.079900e-02	2.860156e-03	2.248202e-03
552           	2.595058e-03	2.769889e-03	3.539685e-03
553           	9.299475e-04	2.860067e-03	3.119060e-03