/*--------------------------------*- C++ -*----------------------------------*\
  =========                 |
  \\      /  F ield         | OpenFOAM: The Open Source CFD Toolbox
   \\    /   O peration     | Website:  https://openfoam.org
    \\  /    A nd           | Version:  10
     \\/     M anipulation  |
\*---------------------------------------------------------------------------*/
FoamFile
{
    format      ascii;
    class       volScalarField;
    location    "2209";
    object      nut;
}
// * * * * * * * * * * * * * * * * * * * * * * * * * * * * * * * * * * * * * //

dimensions      [0 2 -1 0 0 0 0];

internalField   nonuniform List<scalar> 
400
(
3.97149e-14
3.96537e-14
3.96354e-14
3.967e-14
6.9654e-12
6.95466e-12
6.95145e-12
6.95751e-12
1.46654e-10
1.46428e-10
1.46361e-10
1.46488e-10
1.13524e-09
1.13348e-09
1.13296e-09
1.13395e-09
5.1944e-09
5.18634e-09
5.18395e-09
5.1885e-09
1.73449e-08
1.73178e-08
1.73099e-08
1.73252e-08
4.70678e-08
4.69939e-08
4.69724e-08
4.70144e-08
1.10374e-07
1.10199e-07
1.10148e-07
1.10249e-07
2.32371e-07
2.31999e-07
2.31894e-07
2.3211e-07
4.50571e-07
4.49841e-07
4.49639e-07
4.50069e-07
8.19436e-07
8.18085e-07
8.17721e-07
8.18531e-07
1.41712e-06
1.41472e-06
1.4141e-06
1.41556e-06
2.35593e-06
2.3518e-06
2.35078e-06
2.35331e-06
3.79878e-06
3.79178e-06
3.79015e-06
3.79441e-06
5.98489e-06
5.97313e-06
5.97057e-06
5.97758e-06
9.26965e-06
9.24992e-06
9.24599e-06
9.25726e-06
1.41862e-05
1.4153e-05
1.4147e-05
1.41649e-05
2.15404e-05
2.14845e-05
2.14755e-05
2.15034e-05
3.25585e-05
3.24639e-05
3.24501e-05
3.24937e-05
4.91154e-05
4.8955e-05
4.89335e-05
4.9002e-05
7.40902e-05
7.38172e-05
7.37829e-05
7.38929e-05
0.000111914
0.000111448
0.00011139
0.000111574
0.000169403
0.00016861
0.000168515
0.000168828
0.000256989
0.000255654
0.000255488
0.00025604
0.000390422
0.000388222
0.000387896
0.000388915
0.000592822
0.000589308
0.000588614
0.000590563
0.000779989
0.000779577
0.000779284
0.000779565
0.000871774
0.000871473
0.000871175
0.000871413
0.000964011
0.000963776
0.000963472
0.000963688
0.0010579
0.00105774
0.00105743
0.00105762
0.00115284
0.00115277
0.00115248
0.00115262
0.00124824
0.00124826
0.00124798
0.00124807
0.00134347
0.0013436
0.00134334
0.00134337
0.00143794
0.00143819
0.00143795
0.00143791
0.00153157
0.0015319
0.00153167
0.00153161
0.00162527
0.00162566
0.0016254
0.00162536
0.00171978
0.00172019
0.00171992
0.00171992
0.00181568
0.0018161
0.0018158
0.00181588
0.00191344
0.00191384
0.00191351
0.00191369
0.00201338
0.00201374
0.00201339
0.00201369
0.00211576
0.00211606
0.00211569
0.00211613
0.00222077
0.002221
0.00222062
0.0022212
0.00232856
0.00232869
0.0023283
0.00232906
0.00243922
0.00243923
0.00243883
0.00243978
0.00255281
0.00255268
0.00255228
0.00255345
0.00266936
0.00266907
0.00266868
0.00267009
0.00278887
0.00278838
0.00278801
0.0027897
0.00291131
0.0029106
0.00291025
0.00291225
0.00303661
0.00303565
0.00303532
0.00303767
0.00316467
0.00316344
0.00316312
0.00316587
0.00329533
0.00329381
0.00329351
0.00329669
0.0034284
0.00342657
0.00342628
0.00342995
0.00356363
0.00356148
0.00356118
0.00356537
0.00370067
0.00369821
0.00369789
0.00370264
0.00383914
0.00383636
0.00383601
0.00384136
0.00397851
0.00397544
0.00397503
0.00398101
0.00411818
0.00411483
0.00411436
0.00412098
0.00425741
0.00425381
0.00425326
0.00426054
0.00439529
0.0043915
0.00439087
0.00439877
0.00453078
0.00452685
0.00452612
0.00453461
0.00466262
0.00465861
0.00465779
0.00466679
0.00478936
0.00478533
0.00478442
0.0047938
0.00490929
0.00490531
0.00490431
0.00491388
0.00502043
0.00501657
0.00501549
0.00502497
0.00512053
0.00511687
0.00511571
0.00512471
0.00520703
0.00520364
0.00520238
0.0052104
0.00527712
0.00527403
0.00527267
0.00527913
0.00532812
0.00532542
0.00532403
0.00532905
0.0053584
0.00535613
0.00535481
0.00535856
0.00536642
0.00536457
0.00536342
0.00536608
0.00535059
0.00534913
0.00534827
0.00535001
0.00530934
0.00530826
0.0053078
0.00530875
0.00524119
0.00524049
0.00524056
0.00524082
0.00514481
0.00514457
0.00514521
0.00514491
0.0050192
0.00501955
0.0050208
0.00502
0.00486376
0.00486481
0.00486676
0.00486548
0.00467819
0.00468017
0.00468284
0.00468101
0.0044615
0.00446473
0.0044677
0.00446486
0.00420025
0.00420443
0.00420371
0.00419506
0.00373427
0.00373155
0.00368275
0.00361439
0.00231926
0.00231754
0.00228355
0.00224549
0.00129707
0.00129253
0.00127636
0.00126465
0.00076633
0.000759618
0.000756962
0.000752621
0.000499488
0.000496667
0.000495582
0.000493557
0.000348166
0.000346123
0.000347026
0.000346103
0.000252545
0.000251577
0.000252733
0.000252171
0.000187685
0.000187041
0.000188163
0.000187906
0.000141219
0.000140949
0.000141838
0.00014179
0.000106988
0.00010696
0.000107601
0.0001077
8.13918e-05
8.14678e-05
8.19265e-05
8.20902e-05
6.21101e-05
6.22134e-05
6.25493e-05
6.27307e-05
4.75574e-05
4.76599e-05
4.79093e-05
4.80889e-05
3.65899e-05
3.66779e-05
3.68717e-05
3.70418e-05
2.83572e-05
2.84266e-05
2.85902e-05
2.87488e-05
2.22138e-05
2.2267e-05
2.24212e-05
2.25688e-05
1.76749e-05
1.77171e-05
1.78755e-05
1.8014e-05
1.43962e-05
1.44317e-05
1.4596e-05
1.47273e-05
1.21424e-05
1.21739e-05
1.23379e-05
1.24621e-05
1.0755e-05
1.0784e-05
1.0944e-05
1.1062e-05
1.01394e-05
1.01672e-05
1.03229e-05
1.04369e-05
)
;

boundaryField
{
    inlet
    {
        type            cyclic;
    }
    outlet
    {
        type            cyclic;
    }
    fixedWalls-bottom
    {
        type            nutkWallFunction;
        Cmu             0.09;
        kappa           0.41;
        E               9.8;
        value           uniform 0;
    }
    fixedWalls-top
    {
        type            symmetry;
    }
    frontAndBack
    {
        type            empty;
    }
}


// ************************************************************************* //
