y,U_x,U_y,U_z,k,nut
0,0,0,0,2.22045e-16,0
0.00502513,0.0150838,1.38243e-19,0,2.22045e-16,1.55482e-20
0.0100503,0.0300444,5.52684e-19,0,2.22045e-16,5.39444e-20
0.0150754,0.0449298,1.30103e-18,0,2.22045e-16,1.25012e-19
0.0201005,0.0597398,2.33195e-18,0,2.22045e-16,2.30938e-19
0.0251256,0.0744744,3.61938e-18,0,2.22045e-16,3.70716e-19
0.0301508,0.0891334,5.11202e-18,0,2.22045e-16,5.42326e-19
0.0351759,0.103717,6.76772e-18,0,2.22045e-16,7.44699e-19
0.040201,0.118225,8.60175e-18,0,2.22045e-16,9.78329e-19
0.0452261,0.132658,1.06696e-17,0,2.22045e-16,1.24421e-18
0.0502513,0.147014,1.30198e-17,0,2.22045e-16,1.54273e-18
0.0552764,0.161296,1.56129e-17,0,2.22045e-16,1.87358e-18
0.0603015,0.175504,1.83207e-17,0,2.22045e-16,2.23614e-18
0.0653266,0.189636,2.10897e-17,0,2.22045e-16,2.62956e-18
0.0703518,0.203685,2.39356e-17,0,2.22045e-16,3.05595e-18
0.0753769,0.217659,2.67963e-17,0,2.22045e-16,3.51093e-18
0.080402,0.231558,2.94771e-17,0,2.22045e-16,3.99277e-18
0.0854271,0.245382,3.18457e-17,0,2.22045e-16,4.4995e-18
0.0904523,0.259131,3.38932e-17,0,2.22045e-16,5.02902e-18
0.0954774,0.272807,3.56617e-17,0,2.22045e-16,5.57907e-18
0.100503,0.28641,3.72009e-17,0,2.22045e-16,6.14737e-18
0.105528,0.299937,3.85637e-17,0,2.22045e-16,6.73233e-18
0.110553,0.313377,3.97263e-17,0,2.22045e-16,7.3328e-18
0.115578,0.326743,4.04059e-17,0,2.22045e-16,7.94332e-18
0.120603,0.340038,4.06244e-17,0,2.22045e-16,8.56163e-18
0.125628,0.353262,4.05136e-17,0,2.22045e-16,9.18567e-18
0.130653,0.366415,4.02772e-17,0,2.22045e-16,9.8136e-18
0.135678,0.379472,4.00392e-17,0,2.22045e-16,1.04432e-17
0.140704,0.392459,3.99534e-17,0,2.22045e-16,1.10718e-17
0.145729,0.405377,3.99651e-17,0,2.22045e-16,1.16982e-17
0.150754,0.418228,4.00292e-17,0,2.22045e-16,1.23212e-17
0.155779,0.430986,4.01062e-17,0,2.22045e-16,1.29377e-17
0.160804,0.443668,4.03736e-17,0,2.22045e-16,1.35471e-17
0.165829,0.456284,4.08222e-17,0,2.22045e-16,1.41496e-17
0.170854,0.468836,4.14548e-17,0,2.22045e-16,1.4745e-17
0.175879,0.481283,4.20244e-17,0,2.22045e-16,1.53272e-17
0.180905,0.493665,4.25002e-17,0,2.22045e-16,1.59005e-17
0.18593,0.505984,4.29249e-17,0,2.22045e-16,1.64649e-17
0.190955,0.518216,4.33877e-17,0,2.22045e-16,1.70164e-17
0.19598,0.530366,4.39765e-17,0,2.22045e-16,1.75551e-17
0.201005,0.542455,4.45867e-17,0,2.22045e-16,1.80842e-17
0.20603,0.554466,4.51513e-17,0,2.22045e-16,1.86007e-17
0.211055,0.566385,4.55305e-17,0,2.22045e-16,1.91017e-17
0.21608,0.578247,4.58687e-17,0,2.22045e-16,1.9593e-17
0.221106,0.590031,4.62062e-17,0,2.22045e-16,2.0071e-17
0.226131,0.601722,4.65052e-17,0,2.22045e-16,2.05327e-17
0.231156,0.613359,4.6804e-17,0,2.22045e-16,2.0985e-17
0.236181,0.62491,4.71296e-17,0,2.22045e-16,2.14218e-17
0.241206,0.636377,4.74751e-17,0,2.22045e-16,2.18438e-17
0.246231,0.647794,4.77417e-17,0,2.22045e-16,2.22569e-17
0.251256,0.659104,4.73055e-17,0,2.22045e-16,2.26508e-17
0.256281,0.670353,4.65271e-17,0,2.22045e-16,2.30338e-17
0.261307,0.68154,4.54108e-17,0,2.22045e-16,2.3406e-17
0.266332,0.692619,4.41277e-17,0,2.22045e-16,2.37594e-17
0.271357,0.703654,4.27025e-17,0,2.22045e-16,2.41054e-17
0.276382,0.71459,4.08588e-17,0,2.22045e-16,2.44348e-17
0.281407,0.725458,3.87458e-17,0,2.22045e-16,2.47531e-17
0.286432,0.736267,3.64063e-17,0,2.22045e-16,2.5062e-17
0.291457,0.746966,3.39313e-17,0,2.22045e-16,2.53542e-17
0.296482,0.757629,3.14296e-17,0,2.22045e-16,2.56412e-17
0.301508,0.768177,2.89168e-17,0,2.22045e-16,2.59117e-17
0.306533,0.778675,2.65246e-17,0,2.22045e-16,2.61759e-17
0.311558,0.789089,2.4337e-17,0,2.22045e-16,2.64293e-17
0.316583,0.799422,2.26729e-17,0,2.22045e-16,2.66736e-17
0.321608,0.8097,2.13615e-17,0,2.22045e-16,2.69116e-17
0.326633,0.819869,2.05641e-17,0,2.22045e-16,2.7139e-17
0.331658,0.830011,1.98957e-17,0,2.22045e-16,2.73637e-17
0.336683,0.840017,1.94659e-17,0,2.22045e-16,2.75776e-17
0.341709,0.850001,1.89946e-17,0,2.22045e-16,2.77902e-17
0.346734,0.859862,1.81969e-17,0,2.22045e-16,2.79954e-17
0.351759,0.869688,1.73447e-17,0,2.22045e-16,2.81994e-17
0.356784,0.879406,1.63307e-17,0,2.22045e-16,2.83994e-17
0.361809,0.889073,1.56656e-17,0,2.22045e-16,2.85988e-17
0.366834,0.898646,1.56487e-17,0,2.22045e-16,2.87972e-17
0.371859,0.908157,1.6075e-17,0,2.22045e-16,2.89963e-17
0.376884,0.917583,1.71101e-17,0,2.22045e-16,2.91965e-17
0.38191,0.92694,1.85654e-17,0,2.22045e-16,2.9399e-17
0.386935,0.936217,2.05029e-17,0,2.22045e-16,2.96041e-17
0.39196,0.94542,2.27232e-17,0,2.22045e-16,2.98127e-17
0.396985,0.954545,2.52468e-17,0,2.22045e-16,3.0025e-17
0.40201,0.963598,2.74763e-17,0,2.22045e-16,3.02414e-17
0.407035,0.97257,2.93756e-17,0,2.22045e-16,3.04623e-17
0.41206,0.981475,3.08285e-17,0,2.22045e-16,3.06873e-17
0.417085,0.990292,3.16933e-17,0,2.22045e-16,3.09175e-17
0.422111,0.999052,3.24844e-17,0,2.22045e-16,3.1151e-17
0.427136,1.00771,3.31464e-17,0,2.22045e-16,3.13902e-17
0.432161,1.01633,3.37392e-17,0,2.22045e-16,3.16316e-17
0.437186,1.02482,3.41407e-17,0,2.22045e-16,3.1879e-17
0.442211,1.0333,3.45235e-17,0,2.22045e-16,3.21273e-17
0.447236,1.04163,3.47903e-17,0,2.22045e-16,3.23814e-17
0.452261,1.04997,3.50571e-17,0,2.22045e-16,3.26355e-17
0.457286,1.05814,3.52635e-17,0,2.22045e-16,3.28946e-17
0.462312,1.06632,3.54688e-17,0,2.22045e-16,3.31537e-17
0.467337,1.07435,3.5195e-17,0,2.22045e-16,3.34155e-17
0.472362,1.08236,3.47969e-17,0,2.22045e-16,3.36781e-17
0.477387,1.09027,3.40204e-17,0,2.22045e-16,3.39421e-17
0.482412,1.09811,3.29647e-17,0,2.22045e-16,3.42073e-17
0.487437,1.10589,3.18189e-17,0,2.22045e-16,3.44734e-17
0.492462,1.11355,3.04862e-17,0,2.22045e-16,3.47415e-17
0.497487,1.1212,2.91587e-17,0,2.22045e-16,3.50097e-17
0.502513,1.12869,2.79431e-17,0,2.22045e-16,3.5281e-17
0.507538,1.13618,2.67275e-17,0,2.22045e-16,3.55522e-17
0.512563,1.14354,2.57139e-17,0,2.22045e-16,3.58255e-17
0.517588,1.15085,2.47747e-17,0,2.22045e-16,3.60995e-17
0.522613,1.1581,2.37512e-17,0,2.22045e-16,3.63749e-17
0.527638,1.16523,2.25928e-17,0,2.22045e-16,3.66524e-17
0.532663,1.17237,2.14282e-17,0,2.22045e-16,3.693e-17
0.537688,1.17932,1.91332e-17,0,2.22045e-16,3.72117e-17
0.542714,1.18627,1.68381e-17,0,2.22045e-16,3.74935e-17
0.547739,1.19312,1.46537e-17,0,2.22045e-16,3.7778e-17
0.552764,1.19988,1.25453e-17,0,2.22045e-16,3.80646e-17
0.557789,1.20662,1.0599e-17,0,2.22045e-16,3.83519e-17
0.562814,1.21321,9.60336e-18,0,2.22045e-16,3.86439e-17
0.567839,1.21979,8.6077e-18,0,2.22045e-16,3.89359e-17
0.572864,1.22625,8.03569e-18,0,2.22045e-16,3.92319e-17
0.577889,1.23264,7.67769e-18,0,2.22045e-16,3.95299e-17
0.582915,1.239,7.39187e-18,0,2.22045e-16,3.98289e-17
0.58794,1.2452,7.52147e-18,0,2.22045e-16,4.01332e-17
0.592965,1.2514,7.65107e-18,0,2.22045e-16,4.04376e-17
0.59799,1.25749,8.46198e-18,0,2.22045e-16,4.07459e-17
0.603015,1.26349,9.7343e-18,0,2.22045e-16,4.10569e-17
0.60804,1.2695,1.10046e-17,0,2.22045e-16,4.13679e-17
0.613065,1.27531,1.20335e-17,0,2.22045e-16,4.16857e-17
0.61809,1.28112,1.30625e-17,0,2.22045e-16,4.20036e-17
0.623116,1.28685,1.33277e-17,0,2.22045e-16,4.23244e-17
0.628141,1.29246,1.23685e-17,0,2.22045e-16,4.26498e-17
0.633166,1.29807,1.14093e-17,0,2.22045e-16,4.29752e-17
0.638191,1.30353,1.02912e-17,0,2.22045e-16,4.33067e-17
0.643216,1.30893,9.11212e-18,0,2.22045e-16,4.36405e-17
0.648241,1.31433,7.92752e-18,0,2.22045e-16,4.39745e-17
0.653266,1.31953,6.51724e-18,0,2.22045e-16,4.43173e-17
0.658291,1.32473,5.10696e-18,0,2.22045e-16,4.46602e-17
0.663317,1.32987,3.05685e-18,0,2.22045e-16,4.50057e-17
0.668342,1.33486,-5.8203e-19,0,2.22045e-16,4.53579e-17
0.673367,1.33985,-4.22091e-18,0,2.22045e-16,4.57102e-17
0.678392,1.34473,-8.68601e-18,0,2.22045e-16,4.60669e-17
0.683417,1.34951,-1.39398e-17,0,2.22045e-16,4.64279e-17
0.688442,1.35429,-1.91936e-17,0,2.22045e-16,4.67889e-17
0.693467,1.35892,-2.4548e-17,0,2.22045e-16,4.7154e-17
0.698492,1.36348,-2.99462e-17,0,2.22045e-16,4.75209e-17
0.703518,1.36805,-3.53444e-17,0,2.22045e-16,4.78879e-17
0.708543,1.37243,-4.08174e-17,0,2.22045e-16,4.82594e-17
0.713568,1.37677,-4.63043e-17,0,2.22045e-16,4.86317e-17
0.718593,1.38112,-5.17913e-17,0,2.22045e-16,4.9004e-17
0.723618,1.38526,-5.70203e-17,0,2.22045e-16,4.93833e-17
0.728643,1.38938,-6.22353e-17,0,2.22045e-16,4.9763e-17
0.733668,1.3935,-6.74307e-17,0,2.22045e-16,5.01427e-17
0.738693,1.39741,-7.11121e-17,0,2.22045e-16,5.05289e-17
0.743719,1.40131,-7.47935e-17,0,2.22045e-16,5.0915e-17
0.748744,1.4052,-7.84281e-17,0,2.22045e-16,5.13013e-17
0.753769,1.40888,-8.08076e-17,0,2.22045e-16,5.16918e-17
0.758794,1.41255,-8.31872e-17,0,2.22045e-16,5.20823e-17
0.763819,1.41622,-8.55609e-17,0,2.22045e-16,5.24728e-17
0.768844,1.41967,-8.76076e-17,0,2.22045e-16,5.28672e-17
0.773869,1.42311,-8.96542e-17,0,2.22045e-16,5.32615e-17
0.778894,1.42656,-9.17008e-17,0,2.22045e-16,5.36558e-17
0.78392,1.42978,-9.24425e-17,0,2.22045e-16,5.40543e-17
0.788945,1.43299,-9.31241e-17,0,2.22045e-16,5.4453e-17
0.79397,1.4362,-9.38056e-17,0,2.22045e-16,5.48517e-17
0.798995,1.43921,-9.20677e-17,0,2.22045e-16,5.52525e-17
0.80402,1.44219,-8.99076e-17,0,2.22045e-16,5.56537e-17
0.809045,1.44516,-8.77475e-17,0,2.22045e-16,5.60549e-17
0.81407,1.44797,-8.42361e-17,0,2.22045e-16,5.64578e-17
0.819095,1.4507,-8.01542e-17,0,2.22045e-16,5.68615e-17
0.824121,1.45343,-7.60723e-17,0,2.22045e-16,5.72651e-17
0.829146,1.45604,-7.24162e-17,0,2.22045e-16,5.76676e-17
0.834171,1.45853,-6.91684e-17,0,2.22045e-16,5.80688e-17
0.839196,1.46102,-6.59205e-17,0,2.22045e-16,5.84701e-17
0.844221,1.46345,-6.30103e-17,0,2.22045e-16,5.88683e-17
0.849246,1.46569,-6.10002e-17,0,2.22045e-16,5.92585e-17
0.854271,1.46794,-5.89901e-17,0,2.22045e-16,5.96486e-17
0.859296,1.47018,-5.698e-17,0,2.22045e-16,6.00387e-17
0.864322,1.47218,-5.54672e-17,0,2.22045e-16,6.04144e-17
0.869347,1.47417,-5.39597e-17,0,2.22045e-16,6.079e-17
0.874372,1.47616,-5.24522e-17,0,2.22045e-16,6.11655e-17
0.879397,1.47799,-5.15292e-17,0,2.22045e-16,6.1528e-17
0.884422,1.47973,-5.09075e-17,0,2.22045e-16,6.18837e-17
0.889447,1.48146,-5.02857e-17,0,2.22045e-16,6.22395e-17
0.894472,1.48313,-4.97635e-17,0,2.22045e-16,6.25886e-17
0.899497,1.48461,-4.94933e-17,0,2.22045e-16,6.29209e-17
0.904523,1.48609,-4.9223e-17,0,2.22045e-16,6.32532e-17
0.909548,1.48757,-4.89528e-17,0,2.22045e-16,6.35855e-17
0.914573,1.48883,-4.75245e-17,0,2.22045e-16,6.39029e-17
0.919598,1.49005,-4.59063e-17,0,2.22045e-16,6.42178e-17
0.924623,1.49127,-4.42881e-17,0,2.22045e-16,6.45327e-17
0.929648,1.49238,-4.20232e-17,0,2.22045e-16,6.48341e-17
0.934673,1.49334,-3.8732e-17,0,2.22045e-16,6.5114e-17
0.939698,1.4943,-3.54408e-17,0,2.22045e-16,6.53938e-17
0.944724,1.49525,-3.21497e-17,0,2.22045e-16,6.56737e-17
0.949749,1.49597,-2.8803e-17,0,2.22045e-16,6.59027e-17
0.954774,1.49666,-2.54476e-17,0,2.22045e-16,6.61237e-17
0.959799,1.49735,-2.20922e-17,0,2.22045e-16,6.63447e-17
0.964824,1.49796,-1.87552e-17,0,2.22045e-16,6.65503e-17
0.969849,1.49837,-1.54624e-17,0,2.22045e-16,6.67187e-17
0.974874,1.49879,-1.21697e-17,0,2.22045e-16,6.68872e-17
0.979899,1.4992,-8.87689e-18,0,2.22045e-16,6.70556e-17
0.984925,1.49943,-6.3705e-18,0,2.22045e-16,6.71593e-17
0.98995,1.49956,-4.247e-18,0,2.22045e-16,6.72314e-17
0.994975,1.4997,-2.1235e-18,0,2.22045e-16,6.73036e-17
1,1.49984,0,0,2.22045e-16,6.73757e-17