/*--------------------------------*- C++ -*----------------------------------*\
  =========                 |
  \\      /  F ield         | OpenFOAM: The Open Source CFD Toolbox
   \\    /   O peration     | Website:  https://openfoam.org
    \\  /    A nd           | Version:  10
     \\/     M anipulation  |
\*---------------------------------------------------------------------------*/
FoamFile
{
    format      ascii;
    class       volScalarField;
    location    "1000";
    object      k;
}
// * * * * * * * * * * * * * * * * * * * * * * * * * * * * * * * * * * * * * //

dimensions      [0 2 -2 0 0 0 0];

internalField   nonuniform List<scalar> 
200
(
8.46616e-06
8.46551e-06
8.46449e-06
8.46456e-06
0.000253774
0.000253755
0.000253724
0.000253726
0.00162862
0.0016285
0.00162832
0.00162833
0.00390261
0.00390237
0.00390204
0.00390206
0.00562642
0.00562624
0.00562588
0.00562589
0.00672341
0.00672329
0.00672295
0.00672294
0.00740518
0.0074051
0.00740482
0.0074048
0.00782741
0.00782736
0.00782712
0.00782714
0.00808645
0.00808641
0.00808622
0.00808629
0.00823965
0.00823961
0.00823947
0.00823959
0.00832145
0.00832141
0.0083213
0.00832146
0.0083531
0.00835303
0.00835296
0.00835313
0.00834806
0.00834796
0.00834792
0.0083481
0.00831515
0.00831502
0.00831503
0.0083152
0.00826033
0.00826019
0.00826025
0.00826039
0.00818771
0.00818759
0.00818767
0.00818777
0.00810017
0.00810008
0.00810018
0.00810024
0.00799981
0.00799973
0.00799981
0.00799981
0.00788807
0.00788801
0.00788808
0.00788802
0.00776603
0.00776597
0.00776605
0.00776592
0.00763445
0.0076344
0.00763448
0.00763429
0.00749393
0.00749389
0.00749397
0.00749372
0.00734503
0.00734501
0.00734508
0.00734477
0.00718843
0.00718841
0.0071885
0.0071881
0.00702509
0.00702504
0.00702516
0.00702465
0.00685615
0.00685624
0.00685631
0.00685579
0.00668356
0.00668376
0.00668369
0.00668326
0.00650904
0.00650916
0.00650915
0.00650883
0.00633343
0.00633348
0.00633351
0.00633319
0.00615678
0.00615678
0.00615685
0.00615644
0.00597936
0.00597933
0.00597943
0.00597895
0.00580171
0.00580171
0.00580182
0.00580128
0.00562445
0.00562447
0.00562458
0.00562403
0.00544825
0.00544827
0.00544839
0.00544785
0.00527381
0.00527382
0.00527394
0.00527343
0.00510189
0.0051019
0.00510202
0.00510155
0.00493335
0.00493335
0.00493345
0.00493304
0.00476907
0.00476907
0.00476915
0.0047688
0.00461003
0.00461003
0.0046101
0.00460981
0.00445726
0.00445727
0.00445732
0.00445709
0.00431187
0.00431189
0.00431193
0.00431173
0.004175
0.00417503
0.00417506
0.0041749
0.00404787
0.00404789
0.00404792
0.00404778
0.00393172
0.00393172
0.00393176
0.00393163
0.00382781
0.00382781
0.00382784
0.00382772
0.00373749
0.00373748
0.00373751
0.0037374
0.00366212
0.00366212
0.00366214
0.00366204
0.00360318
0.00360318
0.00360319
0.00360309
0.0035622
0.0035622
0.00356218
0.00356207
0.00354075
0.00354082
0.00354075
0.00354064
)
;

boundaryField
{
    inlet
    {
        type            cyclic;
    }
    outlet
    {
        type            cyclic;
    }
    fixedWalls-bottom
    {
        type            kqRWallFunction;
        value           nonuniform List<scalar> 4(8.46616e-06 8.46551e-06 8.46449e-06 8.46456e-06);
    }
    fixedWalls-top
    {
        type            symmetry;
    }
    frontAndBack
    {
        type            empty;
    }
}


// ************************************************************************* //
