/*--------------------------------*- C++ -*----------------------------------*\
  =========                 |
  \\      /  F ield         | OpenFOAM: The Open Source CFD Toolbox
   \\    /   O peration     | Website:  https://openfoam.org
    \\  /    A nd           | Version:  10
     \\/     M anipulation  |
\*---------------------------------------------------------------------------*/
FoamFile
{
    format      ascii;
    class       volScalarField;
    location    "1000";
    object      nut;
}
// * * * * * * * * * * * * * * * * * * * * * * * * * * * * * * * * * * * * * //

dimensions      [0 2 -1 0 0 0 0];

internalField   nonuniform List<scalar> 
200
(
1.07223e-08
1.07215e-08
1.07202e-08
1.07203e-08
1.8143e-06
1.81415e-06
1.81394e-06
1.81395e-06
2.92931e-05
2.929e-05
2.92865e-05
2.92869e-05
0.000119001
0.000118986
0.000118974
0.000118976
0.000243288
0.000243281
0.000243262
0.00024326
0.00038916
0.000389157
0.000389135
0.000389129
0.000552533
0.000552532
0.00055251
0.000552503
0.000728651
0.000728649
0.000728628
0.000728627
0.000913551
0.000913547
0.000913528
0.000913538
0.00110425
0.00110424
0.00110423
0.00110425
0.00129865
0.00129864
0.00129862
0.00129866
0.00149534
0.00149532
0.0014953
0.00149534
0.00169335
0.00169332
0.0016933
0.00169336
0.00189208
0.00189203
0.00189203
0.00189208
0.00209109
0.00209104
0.00209105
0.00209109
0.00229009
0.00229004
0.00229007
0.0022901
0.00248885
0.00248882
0.00248885
0.00248888
0.00268719
0.00268716
0.00268718
0.0026872
0.00288494
0.00288492
0.00288494
0.00288494
0.0030821
0.00308208
0.00308213
0.00308207
0.00327899
0.00327899
0.00327905
0.00327894
0.00347665
0.00347668
0.00347675
0.00347655
0.00367736
0.00367743
0.00367745
0.00367719
0.00388521
0.00388526
0.00388516
0.00388494
0.00410625
0.00410616
0.00410591
0.00410597
0.0043473
0.00434711
0.00434671
0.0043475
0.00461236
0.00461224
0.00461178
0.00461347
0.00489296
0.00489291
0.0048929
0.00489393
0.00515308
0.00515154
0.00515285
0.00514745
0.0053903
0.00538815
0.00538959
0.00538324
0.00562544
0.00562362
0.00562426
0.00561792
0.00585728
0.0058577
0.00585621
0.00585074
0.00608796
0.00608657
0.00608638
0.00608098
0.00631551
0.00631376
0.00631368
0.00630828
0.00653982
0.00653795
0.00653791
0.0065325
0.00676071
0.00675883
0.00675879
0.00675341
0.00697795
0.00697609
0.00697605
0.00697073
0.00719122
0.00718939
0.00718936
0.00718413
0.00740007
0.00739827
0.00739827
0.00739314
0.00760392
0.00760213
0.00760218
0.00759713
0.00780198
0.00780009
0.0078003
0.00779524
0.00799332
0.00799098
0.00799164
0.00798627
0.00817729
0.00817316
0.00817494
0.00816851
0.00834926
0.008345
0.00834717
0.00834018
0.00850781
0.00850346
0.00850554
0.00849863
0.00864922
0.00864536
0.00864648
0.00864057
0.0087683
0.00876717
0.00876689
0.00876179
0.00886527
0.008863
0.00886292
0.00885784
0.00893292
0.00892975
0.00892946
0.00892427
0.00896707
0.00896254
0.00896173
0.00895646
)
;

boundaryField
{
    inlet
    {
        type            cyclic;
    }
    outlet
    {
        type            cyclic;
    }
    fixedWalls-bottom
    {
        type            nutkWallFunction;
        Cmu             0.09;
        kappa           0.41;
        E               9.8;
        value           uniform 0;
    }
    fixedWalls-top
    {
        type            symmetry;
    }
    frontAndBack
    {
        type            empty;
    }
}


// ************************************************************************* //
