/*--------------------------------*- C++ -*----------------------------------*\
  =========                 |
  \\      /  F ield         | OpenFOAM: The Open Source CFD Toolbox
   \\    /   O peration     | Website:  https://openfoam.org
    \\  /    A nd           | Version:  10
     \\/     M anipulation  |
\*---------------------------------------------------------------------------*/
FoamFile
{
    format      ascii;
    class       volScalarField;
    location    "1000";
    object      omega;
}
// * * * * * * * * * * * * * * * * * * * * * * * * * * * * * * * * * * * * * //

dimensions      [0 0 -1 0 0 0 0];

internalField   nonuniform List<scalar> 
200
(
789.583
789.583
789.583
789.583
139.874
139.875
139.875
139.875
55.5975
55.5991
55.5995
55.5993
32.7947
32.7968
32.7973
32.7971
22.5127
22.5146
22.5149
22.5148
16.667
16.6683
16.6686
16.6687
12.9605
12.9613
12.9615
12.9616
10.4477
10.4483
10.4484
10.4483
8.65872
8.65911
8.65904
8.65882
7.33399
7.33423
7.33402
7.33375
6.32058
6.32076
6.32046
6.32008
5.52366
5.52379
5.52351
5.52297
4.88211
4.88209
4.88202
4.88127
4.35515
4.35519
4.35487
4.35432
3.91469
3.91468
3.91447
3.91389
3.54091
3.54085
3.54077
3.54021
3.21948
3.21943
3.21937
3.21893
2.93982
2.93979
2.9397
2.93946
2.69397
2.69394
2.69382
2.6938
2.47585
2.4758
2.47574
2.47581
2.2807
2.28066
2.28063
2.28079
2.10476
2.10471
2.10473
2.10496
1.94503
1.94494
1.94504
1.94532
1.79913
1.79904
1.79913
1.79949
1.66521
1.66513
1.66517
1.66563
1.5419
1.54191
1.54184
1.54246
1.42842
1.42847
1.42833
1.42916
1.32427
1.32446
1.32422
1.32528
1.22906
1.22943
1.22913
1.23036
1.1422
1.14265
1.14236
1.14363
1.06291
1.06325
1.06315
1.06426
0.990512
0.990441
0.990711
0.991546
0.923865
0.924079
0.924126
0.924857
0.862677
0.86292
0.862949
0.863603
0.806414
0.806647
0.806671
0.807261
0.754639
0.75485
0.754871
0.755403
0.706991
0.70718
0.707198
0.707679
0.66318
0.663348
0.663362
0.663797
0.622971
0.623123
0.623132
0.623525
0.586179
0.586319
0.586322
0.58668
0.552663
0.5528
0.55279
0.553124
0.522312
0.522467
0.522428
0.52276
0.495014
0.495266
0.495162
0.495535
0.470906
0.471147
0.471029
0.471408
0.449917
0.450147
0.450041
0.450393
0.432118
0.43231
0.432258
0.432541
0.417655
0.417709
0.417724
0.417956
0.406437
0.406542
0.406546
0.406768
0.398772
0.398913
0.398925
0.399144
0.394861
0.395069
0.395096
0.395317
)
;

boundaryField
{
    inlet
    {
        type            cyclic;
    }
    outlet
    {
        type            cyclic;
    }
    fixedWalls-bottom
    {
        beta1           0.075;
        blended         0;
        type            omegaWallFunction;
        value           nonuniform List<scalar> 4(789.583 789.583 789.583 789.583);
    }
    fixedWalls-top
    {
        type            symmetry;
    }
    frontAndBack
    {
        type            empty;
    }
}


// ************************************************************************* //
