/*--------------------------------*- C++ -*----------------------------------*\
  =========                 |
  \\      /  F ield         | OpenFOAM: The Open Source CFD Toolbox
   \\    /   O peration     | Website:  https://openfoam.org
    \\  /    A nd           | Version:  10
     \\/     M anipulation  |
\*---------------------------------------------------------------------------*/
FoamFile
{
    format      ascii;
    class       volScalarField;
    location    "1000";
    object      p;
}
// * * * * * * * * * * * * * * * * * * * * * * * * * * * * * * * * * * * * * //

dimensions      [0 2 -2 0 0 0 0];

internalField   nonuniform List<scalar> 
200
(
-4.55127e-11
1.07036e-07
2.23374e-07
1.06524e-07
-6.3356e-10
1.07393e-07
2.23887e-07
1.06166e-07
-1.15075e-09
1.06973e-07
2.24372e-07
1.06598e-07
-9.97389e-10
1.04079e-07
2.24193e-07
1.09509e-07
3.37023e-11
9.96563e-08
2.23123e-07
1.13953e-07
1.46446e-09
9.56962e-08
2.21642e-07
1.17937e-07
2.50882e-09
9.24927e-08
2.20542e-07
1.21168e-07
2.55931e-09
8.99403e-08
2.20428e-07
1.23748e-07
1.32968e-09
8.78994e-08
2.21589e-07
1.25821e-07
-1.18019e-09
8.61317e-08
2.24025e-07
1.27619e-07
-4.80342e-09
8.44232e-08
2.27568e-07
1.29362e-07
-9.39699e-09
8.25868e-08
2.32078e-07
1.31231e-07
-1.48058e-08
8.08365e-08
2.37396e-07
1.3302e-07
-2.08604e-08
7.95378e-08
2.43358e-07
1.34352e-07
-2.74518e-08
7.9118e-08
2.49847e-07
1.34812e-07
-3.45467e-08
7.96447e-08
2.5684e-07
1.34319e-07
-4.1987e-08
8.10981e-08
2.64166e-07
1.32908e-07
-4.95267e-08
8.33423e-08
2.71593e-07
1.30698e-07
-5.6884e-08
8.65844e-08
2.78826e-07
1.27499e-07
-6.39205e-08
9.11104e-08
2.85741e-07
1.23006e-07
-7.04306e-08
9.73935e-08
2.92117e-07
1.16767e-07
-7.60655e-08
1.05555e-07
2.97624e-07
1.08638e-07
-8.01335e-08
1.15183e-07
3.01551e-07
9.90557e-08
-8.30835e-08
1.24602e-07
3.04367e-07
8.96714e-08
-8.83911e-08
1.31329e-07
3.09531e-07
8.2993e-08
-1.04133e-07
1.3371e-07
3.25136e-07
8.06577e-08
-1.37279e-07
1.34206e-07
3.58144e-07
8.02216e-08
-1.76621e-07
1.38543e-07
3.97359e-07
7.59295e-08
-1.77083e-07
1.4607e-07
3.97696e-07
6.84429e-08
-1.24207e-07
1.49707e-07
3.44703e-07
6.48563e-08
-4.97684e-08
1.49451e-07
2.70159e-07
6.51881e-08
2.63859e-08
1.50169e-07
1.939e-07
6.45615e-08
9.2005e-08
1.46631e-07
1.28189e-07
6.81821e-08
1.45924e-07
1.37129e-07
7.41783e-08
7.77628e-08
1.96015e-07
1.28534e-07
2.40123e-08
8.64256e-08
2.42589e-07
1.22556e-07
-2.26356e-08
9.2475e-08
2.84766e-07
1.18923e-07
-6.48733e-08
9.61693e-08
3.22067e-07
1.17565e-07
-1.02238e-07
9.75874e-08
3.54673e-07
1.18283e-07
-1.34898e-07
9.6914e-08
3.82373e-07
1.20572e-07
-1.62663e-07
9.46661e-08
4.05237e-07
1.2347e-07
-1.85591e-07
9.17834e-08
4.24771e-07
1.27205e-07
-2.05217e-07
8.80583e-08
4.44696e-07
1.34169e-07
-2.25236e-07
8.10736e-08
4.64662e-07
1.42767e-07
-2.45331e-07
7.24565e-08
4.81826e-07
1.49482e-07
-2.62619e-07
6.56991e-08
4.9648e-07
1.55608e-07
-2.77405e-07
5.95371e-08
5.08633e-07
1.61943e-07
-2.89669e-07
5.31655e-08
5.16278e-07
1.64918e-07
-2.97405e-07
5.01625e-08
5.20536e-07
1.63726e-07
-3.01721e-07
5.13327e-08
5.22965e-07
1.61391e-07
-3.04193e-07
5.36429e-08
)
;

boundaryField
{
    inlet
    {
        type            cyclic;
    }
    outlet
    {
        type            cyclic;
    }
    fixedWalls-bottom
    {
        type            zeroGradient;
    }
    fixedWalls-top
    {
        type            symmetry;
    }
    frontAndBack
    {
        type            empty;
    }
}


// ************************************************************************* //
