/*--------------------------------*- C++ -*----------------------------------*\
  =========                 |
  \\      /  F ield         | OpenFOAM: The Open Source CFD Toolbox
   \\    /   O peration     | Website:  https://openfoam.org
    \\  /    A nd           | Version:  10
     \\/     M anipulation  |
\*---------------------------------------------------------------------------*/
FoamFile
{
    format      ascii;
    class       surfaceScalarField;
    location    "1000";
    object      phi;
}
// * * * * * * * * * * * * * * * * * * * * * * * * * * * * * * * * * * * * * //

dimensions      [0 3 -1 0 0 0 0];

internalField   nonuniform List<scalar> 
346
(
0.00135751
-3.37263e-09
0.0013575
8.81728e-09
0.00135749
7.13332e-09
-9.07661e-09
0.00419139
-3.22429e-08
0.00419136
3.67661e-08
0.00419133
3.50438e-08
-3.7531e-08
0.00705257
-7.21972e-08
0.00705252
7.6958e-08
0.00705248
7.43919e-08
-7.79656e-08
0.00953638
-1.0053e-07
0.00953636
9.40145e-08
0.00953633
1.0231e-07
-9.53091e-08
0.0115448
-1.08006e-07
0.0115448
9.50362e-08
0.0115448
1.09601e-07
-9.63397e-08
0.0132252
-9.90146e-08
0.0132252
9.49663e-08
0.0132252
1.00425e-07
-9.64447e-08
0.0146953
-8.07572e-08
0.0146953
9.91405e-08
0.0146953
8.2119e-08
-1.00547e-07
0.0160298
-5.89772e-08
0.0160298
1.06132e-07
0.0160298
6.02356e-08
-1.07675e-07
0.0172769
-3.73966e-08
0.0172769
1.16034e-07
0.0172769
3.86373e-08
-1.17461e-07
0.0184683
-1.75922e-08
0.0184683
1.25944e-07
0.0184683
1.87655e-08
-1.27491e-07
0.0196257
3.0453e-10
0.0196257
1.36018e-07
0.0196257
8.60289e-10
-1.37435e-07
0.0207641
1.69287e-08
0.020764
1.43469e-07
0.0207641
-1.58082e-08
-1.45002e-07
0.0218943
3.30792e-08
0.0218943
1.48673e-07
0.0218944
-3.19792e-08
-1.50058e-07
0.0230246
4.89168e-08
0.0230246
1.49999e-07
0.0230247
-4.78435e-08
-1.51499e-07
0.0241612
6.47272e-08
0.0241612
1.49272e-07
0.0241612
-6.36807e-08
-1.50616e-07
0.0253089
8.00573e-08
0.0253089
1.45985e-07
0.0253089
-7.90204e-08
-1.47448e-07
0.0264718
9.53125e-08
0.0264718
1.42111e-07
0.0264718
-9.43239e-08
-1.43407e-07
0.0276532
1.09631e-07
0.0276532
1.3687e-07
0.0276532
-1.08637e-07
-1.3829e-07
0.0288559
1.23755e-07
0.0288559
1.31682e-07
0.0288559
-1.22823e-07
-1.32927e-07
0.0300824
1.36759e-07
0.0300824
1.26185e-07
0.0300824
-1.35803e-07
-1.27559e-07
0.0313348
1.50233e-07
0.0313348
1.22902e-07
0.0313348
-1.49355e-07
-1.24093e-07
0.032615
1.64538e-07
0.032615
1.22739e-07
0.032615
-1.63621e-07
-1.24062e-07
0.0339244
1.84086e-07
0.0339244
1.2747e-07
0.0339244
-1.83263e-07
-1.28599e-07
0.0352643
2.11205e-07
0.0352643
1.32867e-07
0.0352643
-2.10331e-07
-1.34128e-07
0.0366351
2.4598e-07
0.0366351
1.29499e-07
0.0366352
-2.4521e-07
-1.30564e-07
0.0380371
2.70141e-07
0.0380372
1.01378e-07
0.0380372
-2.69319e-07
-1.02569e-07
0.0394702
2.50528e-07
0.0394702
4.09317e-08
0.0394702
-2.49819e-07
-4.19207e-08
0.0409343
1.58887e-07
0.0409344
-3.86221e-08
0.0409343
-1.58134e-07
3.7521e-08
0.0424313
5.2534e-08
0.0424314
-1.1192e-07
0.0424313
-5.19012e-08
1.11013e-07
0.0439637
-1.58788e-08
0.0439638
-1.67185e-07
0.0439637
1.65405e-08
1.66186e-07
0.0455335
-5.10013e-08
0.0455335
-2.02766e-07
0.0455335
5.15372e-08
2.0196e-07
0.0471417
-4.96726e-08
0.0471417
-2.14473e-07
0.0471417
5.02187e-08
2.13604e-07
0.0487894
-2.35123e-08
0.0487894
-2.05074e-07
0.0487894
2.39374e-08
2.04384e-07
0.0504775
4.52708e-09
0.0504775
-1.86114e-07
0.0504775
-4.10947e-09
1.85391e-07
0.0522069
3.25158e-08
0.0522068
-1.63764e-07
0.0522069
-3.22116e-08
1.6321e-07
0.0539783
5.84838e-08
0.0539783
-1.40699e-07
0.0539783
-5.82028e-08
1.40144e-07
0.0557925
8.21742e-08
0.0557925
-1.18782e-07
0.0557925
-8.19919e-08
1.18376e-07
0.05765
1.02149e-07
0.05765
-9.85595e-08
0.05765
-1.01998e-07
9.81767e-08
0.0595512
1.18136e-07
0.0595512
-8.06485e-08
0.0595512
-1.18067e-07
8.03934e-08
0.0614965
1.29483e-07
0.0614965
-6.40459e-08
0.0614965
-1.29446e-07
6.38269e-08
0.0634861
1.35375e-07
0.0634861
-4.84802e-08
0.0634861
-1.35387e-07
4.83501e-08
0.06552
1.35298e-07
0.06552
-3.31149e-08
0.06552
-1.35335e-07
3.30217e-08
0.0675981
1.29275e-07
0.0675981
-2.13154e-08
0.0675981
-1.29327e-07
2.12691e-08
0.06972
1.18826e-07
0.06972
-1.32648e-08
0.06972
-1.18889e-07
1.32459e-08
0.0718852
1.0453e-07
0.0718852
-7.10459e-09
0.0718852
-1.04574e-07
7.09144e-09
0.0740929
8.64529e-08
0.0740929
-4.21619e-09
0.0740929
-8.64867e-08
4.20821e-09
0.076342
6.58746e-08
0.076342
-1.04187e-09
0.076342
-6.5876e-08
1.01885e-09
0.0786309
4.41858e-08
0.0786309
3.233e-09
0.0786309
-4.4142e-08
-3.28543e-09
0.0809576
2.30167e-08
0.0809576
3.70667e-09
0.0809576
-2.29802e-08
-3.74318e-09
0.0833194
0.0833194
0.0833194
)
;

boundaryField
{
    inlet
    {
        type            cyclic;
        value           nonuniform List<scalar> 
50
(
-0.0833194
-0.0809576
-0.0786309
-0.076342
-0.0740929
-0.0718852
-0.06972
-0.0675981
-0.06552
-0.0634861
-0.0614966
-0.0595512
-0.05765
-0.0557925
-0.0539783
-0.0522069
-0.0504775
-0.0487894
-0.0471417
-0.0455335
-0.0439637
-0.0424312
-0.0409342
-0.0394701
-0.0380372
-0.0366352
-0.0352643
-0.0339244
-0.032615
-0.0313348
-0.0300824
-0.0288559
-0.0276532
-0.0264718
-0.0253089
-0.0241612
-0.0230247
-0.0218944
-0.0207641
-0.0196257
-0.0184683
-0.0172769
-0.0160298
-0.0146953
-0.0132252
-0.0115448
-0.00953635
-0.00705252
-0.00419136
-0.0013575
)
;
    }
    outlet
    {
        type            cyclic;
        value           nonuniform List<scalar> 
50
(
0.0833194
0.0809576
0.0786309
0.076342
0.0740929
0.0718852
0.06972
0.0675981
0.06552
0.0634861
0.0614966
0.0595512
0.05765
0.0557925
0.0539783
0.0522069
0.0504775
0.0487894
0.0471417
0.0455335
0.0439637
0.0424312
0.0409342
0.0394701
0.0380372
0.0366352
0.0352643
0.0339244
0.032615
0.0313348
0.0300824
0.0288559
0.0276532
0.0264718
0.0253089
0.0241612
0.0230247
0.0218944
0.0207641
0.0196257
0.0184683
0.0172769
0.0160298
0.0146953
0.0132252
0.0115448
0.00953635
0.00705252
0.00419136
0.0013575
)
;
    }
    fixedWalls-bottom
    {
        type            calculated;
        value           uniform 0;
    }
    fixedWalls-top
    {
        type            symmetry;
        value           uniform 0;
    }
    frontAndBack
    {
        type            empty;
        value           nonuniform List<scalar> 0();
    }
}


// ************************************************************************* //
