/*--------------------------------*- C++ -*----------------------------------*\
  =========                 |
  \\      /  F ield         | OpenFOAM: The Open Source CFD Toolbox
   \\    /   O peration     | Website:  https://openfoam.org
    \\  /    A nd           | Version:  10
     \\/     M anipulation  |
\*---------------------------------------------------------------------------*/
FoamFile
{
    format      ascii;
    class       volSymmTensorField;
    location    "1000";
    object      R;
}
// * * * * * * * * * * * * * * * * * * * * * * * * * * * * * * * * * * * * * //

dimensions      [0 2 -2 0 0 0 0];

internalField   nonuniform List<symmTensor> 
200
(
(5.64411e-06 -1.70344e-07 -0 5.64411e-06 -0 5.64411e-06)
(5.64367e-06 -1.7033e-07 -0 5.64367e-06 -0 5.64367e-06)
(5.64299e-06 -1.70307e-07 -0 5.64299e-06 -0 5.64299e-06)
(5.64304e-06 -1.70308e-07 -0 5.64304e-06 -0 5.64304e-06)
(0.000169183 -2.75794e-05 -0 0.000169183 -0 0.000169183)
(0.00016917 -2.75772e-05 -0 0.00016917 -0 0.00016917)
(0.000169149 -2.75736e-05 -0 0.000169149 -0 0.000169149)
(0.000169151 -2.75738e-05 -0 0.000169151 -0 0.000169151)
(0.00108575 -0.000382642 -0 0.00108575 -0 0.00108575)
(0.00108566 -0.000382603 -0 0.00108566 -0 0.00108566)
(0.00108554 -0.000382558 -0 0.00108554 -0 0.00108554)
(0.00108555 -0.000382563 -0 0.00108555 -0 0.00108555)
(0.00260174 -0.00117615 -0 0.00260174 -0 0.00260174)
(0.00260158 -0.00117601 -0 0.00260158 -0 0.00260158)
(0.00260136 -0.00117591 -0 0.00260136 -0 0.00260136)
(0.00260138 -0.00117593 -0 0.00260138 -0 0.00260138)
(0.00375094 -0.00174421 -0 0.00375095 -0 0.00375095)
(0.00375083 -0.00174416 -0 0.00375083 -0 0.00375083)
(0.00375059 -0.00174405 -0 0.00375059 -0 0.00375059)
(0.00375059 -0.00174405 -0 0.00375059 -0 0.00375059)
(0.00448228 -0.00208467 -0 0.00448227 -0 0.00448227)
(0.00448219 -0.00208463 -0 0.00448219 -0 0.00448219)
(0.00448197 -0.00208453 -0 0.00448197 -0 0.00448197)
(0.00448196 -0.00208452 -0 0.00448196 -0 0.00448196)
(0.00493679 -0.00229575 -0 0.00493679 -0 0.00493679)
(0.00493674 -0.00229573 -0 0.00493674 -0 0.00493674)
(0.00493654 -0.00229564 -0 0.00493655 -0 0.00493655)
(0.00493654 -0.00229564 -0 0.00493654 -0 0.00493654)
(0.00521828 -0.00242652 -0 0.00521827 -0 0.00521828)
(0.00521824 -0.0024265 -0 0.00521824 -0 0.00521824)
(0.00521808 -0.00242643 -0 0.00521809 -0 0.00521808)
(0.00521809 -0.00242644 -0 0.0052181 -0 0.0052181)
(0.00539097 -0.0025068 -0 0.00539096 -0 0.00539097)
(0.00539094 -0.00250679 -0 0.00539094 -0 0.00539094)
(0.00539081 -0.00250673 -0 0.00539082 -0 0.00539081)
(0.00539086 -0.00250675 -0 0.00539086 -0 0.00539086)
(0.0054931 -0.00255429 -0 0.00549309 -0 0.0054931)
(0.00549308 -0.00255428 -0 0.00549307 -0 0.00549307)
(0.00549297 -0.00255424 -0 0.00549298 -0 0.00549298)
(0.00549305 -0.00255427 -0 0.00549306 -0 0.00549306)
(0.00554764 -0.00257965 -0 0.00554763 -0 0.00554764)
(0.00554761 -0.00257964 -0 0.0055476 -0 0.00554761)
(0.00554753 -0.0025796 -0 0.00554754 -0 0.00554753)
(0.00554764 -0.00257965 -0 0.00554764 -0 0.00554764)
(0.00556874 -0.00258946 -0 0.00556873 -0 0.00556873)
(0.00556869 -0.00258944 -0 0.00556868 -0 0.00556869)
(0.00556863 -0.00258942 -0 0.00556864 -0 0.00556864)
(0.00556875 -0.00258947 -0 0.00556875 -0 0.00556875)
(0.00556538 -0.0025879 -0 0.00556537 -0 0.00556537)
(0.0055653 -0.00258787 -0 0.0055653 -0 0.0055653)
(0.00556527 -0.00258785 -0 0.00556528 -0 0.00556528)
(0.0055654 -0.00258791 -0 0.0055654 -0 0.0055654)
(0.00554344 -0.0025777 -0 0.00554343 -0 0.00554343)
(0.00554334 -0.00257766 -0 0.00554334 -0 0.00554334)
(0.00554335 -0.00257766 -0 0.00554336 -0 0.00554335)
(0.00554347 -0.00257771 -0 0.00554347 -0 0.00554347)
(0.00550689 -0.0025607 -0 0.00550688 -0 0.00550689)
(0.00550679 -0.00256066 -0 0.0055068 -0 0.00550679)
(0.00550683 -0.00256068 -0 0.00550684 -0 0.00550683)
(0.00550693 -0.00256072 -0 0.00550692 -0 0.00550692)
(0.00545848 -0.00253819 -0 0.00545847 -0 0.00545847)
(0.00545839 -0.00253815 -0 0.00545839 -0 0.00545839)
(0.00545844 -0.00253818 -0 0.00545845 -0 0.00545845)
(0.00545851 -0.00253821 -0 0.00545851 -0 0.00545851)
(0.00540012 -0.00251105 -0 0.00540011 -0 0.00540012)
(0.00540005 -0.00251102 -0 0.00540005 -0 0.00540005)
(0.00540012 -0.00251106 -0 0.00540013 -0 0.00540012)
(0.00540016 -0.00251108 -0 0.00540016 -0 0.00540016)
(0.00533321 -0.00247994 -0 0.0053332 -0 0.0053332)
(0.00533315 -0.00247992 -0 0.00533315 -0 0.00533315)
(0.0053332 -0.00247994 -0 0.00533321 -0 0.0053332)
(0.00533321 -0.00247994 -0 0.00533321 -0 0.00533321)
(0.00525872 -0.0024453 -0 0.00525871 -0 0.00525871)
(0.00525867 -0.00244528 -0 0.00525867 -0 0.00525867)
(0.00525871 -0.0024453 -0 0.00525872 -0 0.00525872)
(0.00525868 -0.00244529 -0 0.00525868 -0 0.00525868)
(0.00517736 -0.00240747 -0 0.00517735 -0 0.00517735)
(0.00517731 -0.00240745 -0 0.00517732 -0 0.00517732)
(0.00517736 -0.00240747 -0 0.00517737 -0 0.00517737)
(0.00517728 -0.00240744 -0 0.00517728 -0 0.00517728)
(0.00508964 -0.00236668 -0 0.00508963 -0 0.00508963)
(0.0050896 -0.00236666 -0 0.0050896 -0 0.0050896)
(0.00508965 -0.00236669 -0 0.00508966 -0 0.00508965)
(0.00508953 -0.00236663 -0 0.00508952 -0 0.00508952)
(0.00499596 -0.00232312 -0 0.00499595 -0 0.00499595)
(0.00499593 -0.00232311 -0 0.00499593 -0 0.00499593)
(0.00499597 -0.00232313 -0 0.00499599 -0 0.00499598)
(0.00499581 -0.00232305 -0 0.00499581 -0 0.00499581)
(0.0048967 -0.00227696 -0 0.00489668 -0 0.00489669)
(0.00489667 -0.00227695 -0 0.00489667 -0 0.00489667)
(0.00489671 -0.00227698 -0 0.00489673 -0 0.00489672)
(0.00489651 -0.00227688 -0 0.00489652 -0 0.00489651)
(0.0047923 -0.00222841 -0 0.00479228 -0 0.00479229)
(0.00479228 -0.00222841 -0 0.00479227 -0 0.00479227)
(0.00479232 -0.00222843 -0 0.00479234 -0 0.00479233)
(0.00479207 -0.00222831 -0 0.00479207 -0 0.00479207)
(0.00468341 -0.00217778 -0 0.00468338 -0 0.0046834)
(0.00468336 -0.00217776 -0 0.00468336 -0 0.00468336)
(0.00468343 -0.0021778 -0 0.00468346 -0 0.00468344)
(0.0046831 -0.00217764 -0 0.0046831 -0 0.0046831)
(0.00457077 -0.00212541 -0 0.00457076 -0 0.00457076)
(0.00457082 -0.00212544 -0 0.00457084 -0 0.00457083)
(0.00457087 -0.00212546 -0 0.00457089 -0 0.00457088)
(0.00457054 -0.00212529 -0 0.00457051 -0 0.00457052)
(0.00445569 -0.0020719 -0 0.00445572 -0 0.0044557)
(0.00445581 -0.00207196 -0 0.00445586 -0 0.00445584)
(0.00445581 -0.00207194 -0 0.00445578 -0 0.0044558)
(0.00445554 -0.00207181 -0 0.00445548 -0 0.00445551)
(0.00433932 -0.0020178 -0 0.0043394 -0 0.00433937)
(0.0043394 -0.00201784 -0 0.00433948 -0 0.00433944)
(0.00433948 -0.00201784 -0 0.0043394 -0 0.00433943)
(0.00433926 -0.00201774 -0 0.00433918 -0 0.00433922)
(0.00422223 -0.00195677 -0 0.00422233 -0 0.00422229)
(0.00422229 -0.00195628 -0 0.00422236 -0 0.00422232)
(0.00422239 -0.00195651 -0 0.00422229 -0 0.00422234)
(0.00422216 -0.00195489 -0 0.00422209 -0 0.00422213)
(0.00410448 -0.0018913 -0 0.00410456 -0 0.00410452)
(0.00410449 -0.00189065 -0 0.00410455 -0 0.00410452)
(0.0041046 -0.0018908 -0 0.00410453 -0 0.00410457)
(0.00410433 -0.0018894 -0 0.00410427 -0 0.0041043)
(0.00398622 -0.00182562 -0 0.00398625 -0 0.00398624)
(0.0039862 -0.00182492 -0 0.00398624 -0 0.00398622)
(0.00398631 -0.00182497 -0 0.00398627 -0 0.00398629)
(0.00398599 -0.0018235 -0 0.00398595 -0 0.00398597)
(0.00386781 -0.00175725 -0 0.0038678 -0 0.0038678)
(0.0038678 -0.00175706 -0 0.00386781 -0 0.00386781)
(0.00386788 -0.00175666 -0 0.00386788 -0 0.00386788)
(0.00386753 -0.00175535 -0 0.00386752 -0 0.00386752)
(0.00374965 -0.00168679 -0 0.00374962 -0 0.00374963)
(0.00374965 -0.00168624 -0 0.00374964 -0 0.00374965)
(0.00374971 -0.00168618 -0 0.00374973 -0 0.00374972)
(0.00374935 -0.00168484 -0 0.00374936 -0 0.00374935)
(0.00363218 -0.0016138 -0 0.00363215 -0 0.00363216)
(0.00363219 -0.00161335 -0 0.00363217 -0 0.00363218)
(0.00363224 -0.00161326 -0 0.00363227 -0 0.00363226)
(0.00363189 -0.00161196 -0 0.00363191 -0 0.0036319)
(0.00351589 -0.00153836 -0 0.00351585 -0 0.00351587)
(0.00351589 -0.00153795 -0 0.00351587 -0 0.00351588)
(0.00351595 -0.00153789 -0 0.00351598 -0 0.00351596)
(0.00351561 -0.00153665 -0 0.00351563 -0 0.00351562)
(0.00340128 -0.00146042 -0 0.00340125 -0 0.00340126)
(0.00340128 -0.00146005 -0 0.00340125 -0 0.00340127)
(0.00340133 -0.00146001 -0 0.00340136 -0 0.00340134)
(0.00340102 -0.00145885 -0 0.00340104 -0 0.00340103)
(0.00328891 -0.00137992 -0 0.00328889 -0 0.0032889)
(0.00328891 -0.00137958 -0 0.00328889 -0 0.0032889)
(0.00328895 -0.00137957 -0 0.00328898 -0 0.00328897)
(0.00328868 -0.00137848 -0 0.0032887 -0 0.00328869)
(0.00317939 -0.00129679 -0 0.00317937 -0 0.00317938)
(0.00317939 -0.00129648 -0 0.00317937 -0 0.00317938)
(0.00317942 -0.00129648 -0 0.00317944 -0 0.00317943)
(0.00317919 -0.00129549 -0 0.00317921 -0 0.0031792)
(0.00307336 -0.00121097 -0 0.00307334 -0 0.00307335)
(0.00307336 -0.00121068 -0 0.00307334 -0 0.00307335)
(0.00307339 -0.0012107 -0 0.00307341 -0 0.0030734)
(0.00307319 -0.0012098 -0 0.00307321 -0 0.0030732)
(0.00297151 -0.00112238 -0 0.0029715 -0 0.00297151)
(0.00297152 -0.00112211 -0 0.00297151 -0 0.00297152)
(0.00297154 -0.00112214 -0 0.00297156 -0 0.00297155)
(0.00297138 -0.00112132 -0 0.0029714 -0 0.00297139)
(0.00287458 -0.00103096 -0 0.00287457 -0 0.00287458)
(0.0028746 -0.0010307 -0 0.00287458 -0 0.00287459)
(0.00287461 -0.00103075 -0 0.00287462 -0 0.00287462)
(0.00287448 -0.00103 -0 0.0028745 -0 0.00287449)
(0.00278334 -0.000936619 -0 0.00278334 -0 0.00278334)
(0.00278336 -0.000936363 -0 0.00278334 -0 0.00278335)
(0.00278337 -0.000936445 -0 0.00278337 -0 0.00278337)
(0.00278326 -0.000935761 -0 0.00278327 -0 0.00278327)
(0.00269858 -0.000839388 -0 0.00269859 -0 0.00269858)
(0.0026986 -0.000839031 -0 0.00269859 -0 0.00269859)
(0.00269862 -0.000839183 -0 0.00269861 -0 0.00269862)
(0.00269852 -0.000838512 -0 0.00269853 -0 0.00269852)
(0.00262114 -0.000738977 -0 0.00262115 -0 0.00262114)
(0.00262115 -0.000738671 -0 0.00262114 -0 0.00262115)
(0.00262118 -0.00073882 -0 0.00262117 -0 0.00262117)
(0.00262108 -0.000738214 -0 0.00262109 -0 0.00262109)
(0.00255187 -0.000635451 -0 0.00255188 -0 0.00255187)
(0.00255187 -0.000635175 -0 0.00255187 -0 0.00255187)
(0.0025519 -0.000635306 -0 0.00255189 -0 0.0025519)
(0.00255181 -0.00063479 -0 0.00255182 -0 0.00255182)
(0.00249165 -0.000528707 -0 0.00249167 -0 0.00249166)
(0.00249166 -0.000528477 -0 0.00249165 -0 0.00249165)
(0.00249168 -0.000528553 -0 0.00249167 -0 0.00249167)
(0.0024916 -0.000528166 -0 0.0024916 -0 0.0024916)
(0.0024414 -0.000418609 -0 0.00244143 -0 0.00244141)
(0.00244142 -0.000418525 -0 0.00244141 -0 0.00244142)
(0.00244144 -0.000418538 -0 0.00244142 -0 0.00244143)
(0.00244136 -0.000418262 -0 0.00244136 -0 0.00244136)
(0.00240211 -0.000305285 -0 0.00240213 -0 0.00240212)
(0.00240212 -0.000305196 -0 0.00240212 -0 0.00240212)
(0.00240213 -0.000305214 -0 0.00240211 -0 0.00240212)
(0.00240206 -0.000305023 -0 0.00240206 -0 0.00240206)
(0.00237479 -0.000188585 -0 0.00237481 -0 0.0023748)
(0.0023748 -0.000188538 -0 0.0023748 -0 0.0023748)
(0.0023748 -0.000188538 -0 0.00237478 -0 0.00237479)
(0.00237471 -0.000188425 -0 0.00237471 -0 0.00237471)
(0.00236049 -6.47015e-05 -0 0.00236051 -0 0.0023605)
(0.00236054 -6.4682e-05 -0 0.00236055 -0 0.00236055)
(0.00236051 -6.46746e-05 -0 0.00236049 -0 0.0023605)
(0.00236043 -6.4636e-05 -0 0.00236043 -0 0.00236043)
)
;

boundaryField
{
    inlet
    {
        type            cyclic;
    }
    outlet
    {
        type            cyclic;
    }
    fixedWalls-bottom
    {
        type            kqRWallFunction;
        value           nonuniform List<symmTensor> 4((5.64411e-06 -0 -0 5.64411e-06 -0 5.64411e-06) (5.64367e-06 -0 -0 5.64367e-06 -0 5.64367e-06) (5.64299e-06 -0 -0 5.64299e-06 -0 5.64299e-06) (5.64304e-06 -0 -0 5.64304e-06 -0 5.64304e-06));
    }
    fixedWalls-top
    {
        type            symmetry;
    }
    frontAndBack
    {
        type            empty;
    }
}


// ************************************************************************* //
