/*--------------------------------*- C++ -*----------------------------------*\
  =========                 |
  \\      /  F ield         | OpenFOAM: The Open Source CFD Toolbox
   \\    /   O peration     | Website:  https://openfoam.org
    \\  /    A nd           | Version:  10
     \\/     M anipulation  |
\*---------------------------------------------------------------------------*/
FoamFile
{
    format      ascii;
    class       volVectorField;
    location    "1000";
    object      U;
}
// * * * * * * * * * * * * * * * * * * * * * * * * * * * * * * * * * * * * * //

dimensions      [0 1 -1 0 0 0 0];

internalField   nonuniform List<vector> 
200
(
(0.0736759 -3.31232e-10 0)
(0.0736756 1.78187e-09 0)
(0.0736748 1.1516e-09 0)
(0.0736746 -2.05329e-09 0)
(0.221132 -1.3649e-08 0)
(0.221132 2.72778e-08 0)
(0.221129 1.82665e-08 0)
(0.221129 -2.7656e-08 0)
(0.361705 -5.49878e-08 0)
(0.361704 6.10341e-08 0)
(0.3617 5.75632e-08 0)
(0.3617 -6.19278e-08 0)
(0.475448 -9.05396e-08 0)
(0.475448 8.05141e-08 0)
(0.475446 9.24806e-08 0)
(0.475446 -8.17036e-08 0)
(0.559525 -1.07096e-07 0)
(0.559526 9.42457e-08 0)
(0.559525 1.08732e-07 0)
(0.559525 -9.55696e-08 0)
(0.623084 -1.05013e-07 0)
(0.623084 9.45323e-08 0)
(0.623084 1.06479e-07 0)
(0.623085 -9.59528e-08 0)
(0.673034 -9.03939e-08 0)
(0.673033 9.6498e-08 0)
(0.673033 9.17574e-08 0)
(0.673035 -9.79545e-08 0)
(0.713674 -6.98071e-08 0)
(0.713673 1.02194e-07 0)
(0.713673 7.10982e-08 0)
(0.713675 -1.03686e-07 0)
(0.747739 -4.79252e-08 0)
(0.747738 1.10999e-07 0)
(0.747738 4.91633e-08 0)
(0.74774 -1.1249e-07 0)
(0.777008 -2.71984e-08 0)
(0.777007 1.21317e-07 0)
(0.777007 2.83966e-08 0)
(0.777009 -1.22814e-07 0)
(0.802668 -8.45983e-09 0)
(0.802667 1.31646e-07 0)
(0.802667 9.62443e-09 0)
(0.802669 -1.3313e-07 0)
(0.825537 8.70066e-09 0)
(0.825536 1.40488e-07 0)
(0.825536 -7.56137e-09 0)
(0.825538 -1.41968e-07 0)
(0.846193 2.50075e-08 0)
(0.846192 1.46734e-07 0)
(0.846192 -2.38991e-08 0)
(0.846193 -1.48193e-07 0)
(0.865054 4.09935e-08 0)
(0.865054 1.49855e-07 0)
(0.865054 -3.99082e-08 0)
(0.865055 -1.51301e-07 0)
(0.882433 5.68709e-08 0)
(0.882432 1.50043e-07 0)
(0.882433 -5.58118e-08 0)
(0.882434 -1.51465e-07 0)
(0.898566 7.24993e-08 0)
(0.898565 1.48013e-07 0)
(0.898566 -7.14575e-08 0)
(0.898566 -1.49418e-07 0)
(0.913635 8.78032e-08 0)
(0.913635 1.44448e-07 0)
(0.913635 -8.679e-08 0)
(0.913636 -1.45827e-07 0)
(0.927785 1.02527e-07 0)
(0.927785 1.39786e-07 0)
(0.927785 -1.01535e-07 0)
(0.927786 -1.41144e-07 0)
(0.94113 1.16661e-07 0)
(0.94113 1.34306e-07 0)
(0.941131 -1.15697e-07 0)
(0.941131 -1.35638e-07 0)
(0.953763 1.30044e-07 0)
(0.953763 1.28628e-07 0)
(0.953764 -1.291e-07 0)
(0.953764 -1.29938e-07 0)
(0.965758 1.42943e-07 0)
(0.965758 1.23907e-07 0)
(0.965759 -1.42028e-07 0)
(0.965759 -1.2519e-07 0)
(0.977174 1.56364e-07 0)
(0.977173 1.22222e-07 0)
(0.977174 -1.5547e-07 0)
(0.977174 -1.2348e-07 0)
(0.988053 1.73315e-07 0)
(0.988053 1.25194e-07 0)
(0.988053 -1.72449e-07 0)
(0.988054 -1.26423e-07 0)
(0.998426 1.98436e-07 0)
(0.998425 1.31829e-07 0)
(0.998426 -1.97591e-07 0)
(0.998427 -1.33028e-07 0)
(1.0083 2.33474e-07 0)
(1.0083 1.34565e-07 0)
(1.0083 -2.32655e-07 0)
(1.00831 -1.35733e-07 0)
(1.01769 2.66142e-07 0)
(1.01769 1.19799e-07 0)
(1.01769 -2.65349e-07 0)
(1.01769 -1.20927e-07 0)
(1.02657 2.64615e-07 0)
(1.02657 7.57387e-08 0)
(1.02657 -2.63849e-07 0)
(1.02657 -7.68222e-08 0)
(1.03495 2.00299e-07 0)
(1.03495 6.02127e-09 0)
(1.03496 -1.99564e-07 0)
(1.03495 -7.07677e-09 0)
(1.04287 1.1568e-07 0)
(1.04288 -7.55989e-08 0)
(1.04288 -1.14986e-07 0)
(1.04287 7.45846e-08 0)
(1.0504 1.31049e-08 0)
(1.0504 -1.46747e-07 0)
(1.0504 -1.24554e-08 0)
(1.0504 1.45801e-07 0)
(1.05756 -4.28632e-08 0)
(1.05756 -1.9403e-07 0)
(1.05756 4.3465e-08 0)
(1.05756 1.93131e-07 0)
(1.06436 -5.22859e-08 0)
(1.06437 -2.13273e-07 0)
(1.06437 5.28284e-08 0)
(1.06437 2.12436e-07 0)
(1.07084 -4.14654e-08 0)
(1.07084 -2.13698e-07 0)
(1.07084 4.19552e-08 0)
(1.07084 2.12917e-07 0)
(1.07698 -1.05349e-08 0)
(1.07698 -1.96937e-07 0)
(1.07698 1.09592e-08 0)
(1.07698 1.96232e-07 0)
(1.08281 1.89288e-08 0)
(1.08281 -1.74813e-07 0)
(1.08281 -1.85641e-08 0)
(1.08281 1.74174e-07 0)
(1.08832 4.6145e-08 0)
(1.08832 -1.51923e-07 0)
(1.08832 -4.58517e-08 0)
(1.08832 1.51371e-07 0)
(1.09352 7.1088e-08 0)
(1.09352 -1.295e-07 0)
(1.09352 -7.08558e-08 0)
(1.09352 1.2902e-07 0)
(1.09841 9.3113e-08 0)
(1.09841 -1.08363e-07 0)
(1.09841 -9.29467e-08 0)
(1.09841 1.07972e-07 0)
(1.10298 1.11384e-07 0)
(1.10298 -8.88614e-08 0)
(1.10298 -1.11272e-07 0)
(1.10298 8.8547e-08 0)
(1.10724 1.25238e-07 0)
(1.10724 -7.08838e-08 0)
(1.10724 -1.2518e-07 0)
(1.10724 7.0654e-08 0)
(1.11117 1.33671e-07 0)
(1.11117 -5.47348e-08 0)
(1.11117 -1.33654e-07 0)
(1.11117 5.4568e-08 0)
(1.11478 1.36161e-07 0)
(1.11478 -3.96501e-08 0)
(1.11478 -1.36185e-07 0)
(1.11478 3.95453e-08 0)
(1.11806 1.3297e-07 0)
(1.11806 -2.7942e-08 0)
(1.11806 -1.33019e-07 0)
(1.11806 2.78764e-08 0)
(1.12098 1.24529e-07 0)
(1.12098 -1.75741e-08 0)
(1.12098 -1.24595e-07 0)
(1.12098 1.75437e-08 0)
(1.12356 1.11843e-07 0)
(1.12356 -1.07776e-08 0)
(1.12356 -1.11905e-07 0)
(1.12356 1.07613e-08 0)
(1.12576 9.57885e-08 0)
(1.12576 -6.54166e-09 0)
(1.12576 -9.5833e-08 0)
(1.12576 6.533e-09 0)
(1.12757 7.69332e-08 0)
(1.12757 -1.00248e-09 0)
(1.12757 -7.69507e-08 0)
(1.12757 9.88049e-10 0)
(1.12898 5.48387e-08 0)
(1.12898 1.98224e-09 0)
(1.12898 -5.48159e-08 0)
(1.12898 -2.01314e-09 0)
(1.12997 3.59503e-08 0)
(1.12997 5.65766e-09 0)
(1.12997 -3.59009e-08 0)
(1.12997 -5.7462e-09 0)
(1.13049 9.47607e-09 0)
(1.13049 4.71077e-10 0)
(1.13049 -9.46956e-09 0)
(1.13049 -4.50972e-10 0)
)
;

boundaryField
{
    inlet
    {
        type            cyclic;
    }
    outlet
    {
        type            cyclic;
    }
    fixedWalls-bottom
    {
        type            noSlip;
    }
    fixedWalls-top
    {
        type            symmetry;
    }
    frontAndBack
    {
        type            empty;
    }
}


// ************************************************************************* //
