/*--------------------------------*- C++ -*----------------------------------*\
  =========                 |
  \\      /  F ield         | OpenFOAM: The Open Source CFD Toolbox
   \\    /   O peration     | Website:  https://openfoam.org
    \\  /    A nd           | Version:  10
     \\/     M anipulation  |
\*---------------------------------------------------------------------------*/
FoamFile
{
    format      ascii;
    class       volScalarField;
    location    "592";
    object      k;
}
// * * * * * * * * * * * * * * * * * * * * * * * * * * * * * * * * * * * * * //

dimensions      [0 2 -2 0 0 0 0];

internalField   nonuniform List<scalar> 
200
(
1.8636e-05
1.86352e-05
1.86336e-05
1.86335e-05
0.000548601
0.000548579
0.000548531
0.00054853
0.00290484
0.00290473
0.00290452
0.00290452
0.00513889
0.00513879
0.00513853
0.00513853
0.00639477
0.00639469
0.00639444
0.00639444
0.00708662
0.00708656
0.00708637
0.00708636
0.00747301
0.00747298
0.00747282
0.00747283
0.00768841
0.00768839
0.00768828
0.0076883
0.00780241
0.00780241
0.00780233
0.00780238
0.00785241
0.00785241
0.00785235
0.00785244
0.00785949
0.00785949
0.00785945
0.00785955
0.00783615
0.00783614
0.00783612
0.00783622
0.00779016
0.00779014
0.00779013
0.00779023
0.00772653
0.00772651
0.00772652
0.0077266
0.00764862
0.0076486
0.00764861
0.00764868
0.00755873
0.00755872
0.00755873
0.00755877
0.00745846
0.00745846
0.00745847
0.00745849
0.00734895
0.00734896
0.00734898
0.00734897
0.00723103
0.00723104
0.00723107
0.00723103
0.00710531
0.00710532
0.00710536
0.0071053
0.0069723
0.00697233
0.00697238
0.0069723
0.00683255
0.00683258
0.00683265
0.00683255
0.00668669
0.00668672
0.0066868
0.00668668
0.00653554
0.00653559
0.00653567
0.00653553
0.00638019
0.00638024
0.00638031
0.00638017
0.0062218
0.00622185
0.00622191
0.00622179
0.00606135
0.00606139
0.00606144
0.00606136
0.00589897
0.00589903
0.00589905
0.00589896
0.0057347
0.00573479
0.00573477
0.00573467
0.00556888
0.00556898
0.00556895
0.00556883
0.0054019
0.00540202
0.00540198
0.00540184
0.00523422
0.00523435
0.00523431
0.00523416
0.00506635
0.00506648
0.00506645
0.0050663
0.00489886
0.00489898
0.00489896
0.00489881
0.00473238
0.00473249
0.00473248
0.00473234
0.00456762
0.00456772
0.00456771
0.00456757
0.00440535
0.00440543
0.00440543
0.0044053
0.00424642
0.0042465
0.0042465
0.00424637
0.00409179
0.00409185
0.00409185
0.00409173
0.00394247
0.00394252
0.00394253
0.00394241
0.00379958
0.00379962
0.00379963
0.00379952
0.00366433
0.00366435
0.00366435
0.00366426
0.00353798
0.00353801
0.00353799
0.00353793
0.00342192
0.00342194
0.00342193
0.00342188
0.00331759
0.0033176
0.0033176
0.00331755
0.0032265
0.0032265
0.0032265
0.00322646
0.00315023
0.0031502
0.00315021
0.00315017
0.00309037
0.00309036
0.00309036
0.00309032
0.00304866
0.00304865
0.00304865
0.00304862
0.00302688
0.00302686
0.00302686
0.00302682
)
;

boundaryField
{
    inlet
    {
        type            cyclic;
    }
    outlet
    {
        type            cyclic;
    }
    fixedWalls-bottom
    {
        type            kqRWallFunction;
        value           nonuniform List<scalar> 4(1.8636e-05 1.86352e-05 1.86336e-05 1.86335e-05);
    }
    fixedWalls-top
    {
        type            symmetry;
    }
    frontAndBack
    {
        type            empty;
    }
}


// ************************************************************************* //
