/*--------------------------------*- C++ -*----------------------------------*\
  =========                 |
  \\      /  F ield         | OpenFOAM: The Open Source CFD Toolbox
   \\    /   O peration     | Website:  https://openfoam.org
    \\  /    A nd           | Version:  10
     \\/     M anipulation  |
\*---------------------------------------------------------------------------*/
FoamFile
{
    format      ascii;
    class       volScalarField;
    location    "592";
    object      nut;
}
// * * * * * * * * * * * * * * * * * * * * * * * * * * * * * * * * * * * * * //

dimensions      [0 2 -1 0 0 0 0];

internalField   nonuniform List<scalar> 
200
(
3.23912e-08
3.23899e-08
3.2387e-08
3.23869e-08
5.08294e-06
5.08271e-06
5.08226e-06
5.08225e-06
6.12332e-05
6.12293e-05
6.12243e-05
6.12246e-05
0.000174576
0.000174573
0.000174563
0.000174561
0.000314057
0.000314055
0.000314041
0.000314039
0.000473383
0.000473381
0.000473368
0.000473365
0.00064637
0.000646369
0.000646358
0.000646357
0.000827977
0.000827975
0.000827965
0.00082797
0.00101473
0.00101473
0.00101472
0.00101473
0.00120437
0.00120436
0.00120436
0.00120438
0.00139546
0.00139546
0.00139545
0.00139548
0.0015871
0.00158709
0.00158709
0.00158712
0.0017787
0.00177869
0.00177868
0.00177872
0.00196985
0.00196984
0.00196984
0.00196987
0.00216026
0.00216025
0.00216025
0.00216028
0.00234968
0.00234968
0.00234968
0.00234969
0.0025379
0.0025379
0.0025379
0.00253791
0.00272481
0.00272481
0.00272483
0.00272482
0.00291048
0.00291049
0.00291051
0.00291049
0.00309537
0.00309538
0.00309542
0.00309537
0.00328057
0.0032806
0.00328064
0.00328056
0.0034681
0.00346814
0.00346815
0.00346805
0.00366098
0.00366097
0.00366094
0.00366088
0.00386287
0.00386271
0.00386268
0.00386278
0.00407665
0.00407627
0.00407638
0.00407676
0.00430133
0.00430082
0.00430122
0.00430182
0.00452638
0.00452616
0.0045265
0.00452676
0.00472351
0.00472411
0.00472247
0.0047212
0.00491397
0.00491453
0.0049127
0.00491142
0.00510073
0.00510131
0.00509939
0.00509808
0.00528367
0.00528428
0.00528233
0.005281
0.00546262
0.00546326
0.0054613
0.00545998
0.0056374
0.00563806
0.0056361
0.00563481
0.00580779
0.00580847
0.00580654
0.00580528
0.0059736
0.00597427
0.00597239
0.00597118
0.00613459
0.00613526
0.00613344
0.00613228
0.00629056
0.0062912
0.00628948
0.00628837
0.00644127
0.00644188
0.00644028
0.00643922
0.00658649
0.00658705
0.00658559
0.00658459
0.00672593
0.00672643
0.00672513
0.00672421
0.00685925
0.00685968
0.00685855
0.0068577
0.00698595
0.00698631
0.00698536
0.00698457
0.00710534
0.00710566
0.00710496
0.0071041
0.00721659
0.00721674
0.00721646
0.00721535
0.00731851
0.00731825
0.00731835
0.0073171
0.00740887
0.00740915
0.00740883
0.00740776
0.00748641
0.00748671
0.00748625
0.00748518
0.00754845
0.00754857
0.00754802
0.00754701
0.00759225
0.00759221
0.0075912
0.00759068
0.00761515
0.00761432
0.00761388
0.00761318
)
;

boundaryField
{
    inlet
    {
        type            cyclic;
    }
    outlet
    {
        type            cyclic;
    }
    fixedWalls-bottom
    {
        type            nutkWallFunction;
        Cmu             0.09;
        kappa           0.41;
        E               9.8;
        value           uniform 0;
    }
    fixedWalls-top
    {
        type            symmetry;
    }
    frontAndBack
    {
        type            empty;
    }
}


// ************************************************************************* //
