/*--------------------------------*- C++ -*----------------------------------*\
  =========                 |
  \\      /  F ield         | OpenFOAM: The Open Source CFD Toolbox
   \\    /   O peration     | Website:  https://openfoam.org
    \\  /    A nd           | Version:  10
     \\/     M anipulation  |
\*---------------------------------------------------------------------------*/
FoamFile
{
    format      ascii;
    class       volScalarField;
    location    "592";
    object      omega;
}
// * * * * * * * * * * * * * * * * * * * * * * * * * * * * * * * * * * * * * //

dimensions      [0 0 -1 0 0 0 0];

internalField   nonuniform List<scalar> 
200
(
575.341
575.341
575.341
575.341
107.93
107.93
107.93
107.931
47.4389
47.4402
47.4407
47.4405
28.7188
28.7202
28.7206
28.7205
19.6997
19.7007
19.7011
19.7009
14.5627
14.5634
14.5635
14.5635
11.339
11.3394
11.3396
11.3394
9.17118
9.17137
9.17146
9.17122
7.63305
7.63304
7.63313
7.63278
6.49371
6.49359
6.49371
6.4932
5.61988
5.61971
5.61981
5.61927
4.93022
4.93007
4.93013
4.92961
4.37272
4.3727
4.37264
4.37227
3.91307
3.9131
3.91293
3.9127
3.52749
3.52749
3.52739
3.5272
3.19925
3.19923
3.19916
3.19908
2.91625
2.91622
2.91616
2.9162
2.66951
2.6695
2.66945
2.66959
2.45225
2.45226
2.45223
2.45247
2.25923
2.2593
2.25927
2.25959
2.08651
2.08652
2.08651
2.0869
1.93074
1.93073
1.93074
1.9312
1.78947
1.78941
1.78948
1.78999
1.66075
1.66079
1.66074
1.66137
1.54327
1.5433
1.54327
1.54391
1.43599
1.43599
1.43607
1.43663
1.3382
1.33802
1.3384
1.33877
1.24885
1.24871
1.24914
1.24946
1.16702
1.1669
1.16734
1.16762
1.09178
1.09168
1.09208
1.09234
1.02238
1.02228
1.02265
1.02288
0.958188
0.958099
0.958437
0.958642
0.898704
0.898621
0.898928
0.899107
0.843498
0.84342
0.843697
0.843854
0.792217
0.792145
0.792392
0.79253
0.744568
0.744503
0.744721
0.744841
0.700311
0.700253
0.700444
0.700548
0.659253
0.659202
0.659366
0.659454
0.62124
0.621196
0.621335
0.62141
0.58616
0.586123
0.586238
0.586301
0.553936
0.553906
0.553999
0.554051
0.524528
0.524504
0.524576
0.524623
0.497932
0.497914
0.497961
0.498012
0.474175
0.474166
0.474184
0.47425
0.453315
0.453332
0.453326
0.453397
0.435492
0.435475
0.435494
0.435551
0.420792
0.420773
0.4208
0.420854
0.409404
0.409396
0.409426
0.409476
0.401549
0.40155
0.401604
0.401626
0.397481
0.397522
0.397545
0.397577
)
;

boundaryField
{
    inlet
    {
        type            cyclic;
    }
    outlet
    {
        type            cyclic;
    }
    fixedWalls-bottom
    {
        beta1           0.075;
        blended         0;
        type            omegaWallFunction;
        value           nonuniform List<scalar> 4(575.341 575.341 575.341 575.341);
    }
    fixedWalls-top
    {
        type            symmetry;
    }
    frontAndBack
    {
        type            empty;
    }
}


// ************************************************************************* //
