/*--------------------------------*- C++ -*----------------------------------*\
  =========                 |
  \\      /  F ield         | OpenFOAM: The Open Source CFD Toolbox
   \\    /   O peration     | Website:  https://openfoam.org
    \\  /    A nd           | Version:  10
     \\/     M anipulation  |
\*---------------------------------------------------------------------------*/
FoamFile
{
    format      ascii;
    class       volScalarField;
    location    "592";
    object      p;
}
// * * * * * * * * * * * * * * * * * * * * * * * * * * * * * * * * * * * * * //

dimensions      [0 2 -2 0 0 0 0];

internalField   nonuniform List<scalar> 
200
(
4.53315e-12
3.53019e-07
1.85879e-07
-1.6482e-07
-3.80115e-10
3.53097e-07
1.86301e-07
-1.64903e-07
-3.87864e-10
3.5202e-07
1.86321e-07
-1.63836e-07
4.71874e-10
3.49553e-07
1.85467e-07
-1.6138e-07
1.82405e-09
3.46794e-07
1.84123e-07
-1.58633e-07
3.05131e-09
3.44386e-07
1.82908e-07
-1.5624e-07
3.69163e-09
3.42441e-07
1.8228e-07
-1.54307e-07
3.51693e-09
3.40767e-07
1.82469e-07
-1.52649e-07
2.50073e-09
3.39148e-07
1.835e-07
-1.51044e-07
7.55221e-10
3.37433e-07
1.85262e-07
-1.49346e-07
-1.50288e-09
3.35543e-07
1.87536e-07
-1.47471e-07
-4.11423e-09
3.3346e-07
1.90166e-07
-1.45406e-07
-6.93083e-09
3.31231e-07
1.93e-07
-1.43191e-07
-9.90036e-09
3.28907e-07
1.9599e-07
-1.40887e-07
-1.29063e-08
3.26519e-07
1.99015e-07
-1.38515e-07
-1.59145e-08
3.24041e-07
2.02045e-07
-1.36058e-07
-1.89059e-08
3.21456e-07
2.05056e-07
-1.33488e-07
-2.19686e-08
3.18827e-07
2.08142e-07
-1.30882e-07
-2.52007e-08
3.16302e-07
2.11394e-07
-1.28373e-07
-2.85135e-08
3.14081e-07
2.1473e-07
-1.26177e-07
-3.14555e-08
3.12172e-07
2.17692e-07
-1.24285e-07
-3.33617e-08
3.09955e-07
2.19628e-07
-1.22094e-07
-3.45178e-08
3.05946e-07
2.2081e-07
-1.18101e-07
-3.79938e-08
2.98773e-07
2.24323e-07
-1.10954e-07
-4.98519e-08
2.89314e-07
2.36206e-07
-1.01509e-07
-7.22847e-08
2.81356e-07
2.58671e-07
-9.35801e-08
-9.10751e-08
2.75972e-07
2.77476e-07
-8.82174e-08
-7.96978e-08
2.63772e-07
2.66123e-07
-7.60554e-08
-4.23356e-08
2.41548e-07
2.28778e-07
-5.38502e-08
-1.78933e-09
2.16756e-07
1.88272e-07
-2.90916e-08
3.68077e-08
1.92603e-07
1.497e-07
-4.9515e-09
7.31839e-08
1.69696e-07
1.13367e-07
1.79212e-08
1.07314e-07
1.47965e-07
7.92591e-08
3.96398e-08
1.39002e-07
1.27339e-07
4.76149e-08
6.02291e-08
1.67962e-07
1.07863e-07
1.86745e-08
7.96918e-08
1.94081e-07
8.95709e-08
-7.40013e-09
9.79438e-08
2.17225e-07
7.2517e-08
-3.05241e-08
1.14982e-07
2.37359e-07
5.67354e-08
-5.06165e-08
1.30725e-07
2.54358e-07
4.2251e-08
-6.75963e-08
1.45193e-07
2.6822e-07
2.90627e-08
-8.14195e-08
1.58344e-07
2.7901e-07
1.71691e-08
-9.21906e-08
1.7022e-07
2.87038e-07
6.70217e-09
-1.00187e-07
1.80656e-07
2.92774e-07
-1.9904e-09
-1.05906e-07
1.89331e-07
2.96742e-07
-8.65534e-09
-1.09851e-07
1.95973e-07
2.99286e-07
-1.40684e-08
-1.1238e-07
2.01371e-07
3.01471e-07
-1.86313e-08
-1.1455e-07
2.05918e-07
3.04022e-07
-2.24127e-08
-1.17089e-07
2.09687e-07
3.06384e-07
-2.59277e-08
-1.19442e-07
2.13192e-07
3.08111e-07
-2.9273e-08
-1.2117e-07
2.16537e-07
3.09155e-07
-3.16726e-08
-1.22221e-07
2.18942e-07
)
;

boundaryField
{
    inlet
    {
        type            cyclic;
    }
    outlet
    {
        type            cyclic;
    }
    fixedWalls-bottom
    {
        type            zeroGradient;
    }
    fixedWalls-top
    {
        type            symmetry;
    }
    frontAndBack
    {
        type            empty;
    }
}


// ************************************************************************* //
