/*--------------------------------*- C++ -*----------------------------------*\
  =========                 |
  \\      /  F ield         | OpenFOAM: The Open Source CFD Toolbox
   \\    /   O peration     | Website:  https://openfoam.org
    \\  /    A nd           | Version:  10
     \\/     M anipulation  |
\*---------------------------------------------------------------------------*/
FoamFile
{
    format      ascii;
    class       surfaceScalarField;
    location    "592";
    object      phi;
}
// * * * * * * * * * * * * * * * * * * * * * * * * * * * * * * * * * * * * * //

dimensions      [0 3 -1 0 0 0 0];

internalField   nonuniform List<scalar> 
346
(
0.0016832
-9.48291e-09
0.00168319
4.80408e-09
0.00168319
9.0394e-09
-4.73749e-09
0.00515524
-3.76146e-08
0.00515522
2.3822e-08
0.0051552
3.6988e-08
-2.36433e-08
0.00830618
-6.37674e-08
0.00830617
3.53596e-08
0.00830615
6.32057e-08
-3.51182e-08
0.0107069
-7.36032e-08
0.0107069
3.65593e-08
0.0107069
7.30209e-08
-3.62737e-08
0.0125567
-7.07015e-08
0.0125567
3.6477e-08
0.0125567
7.01377e-08
-3.61706e-08
0.0140898
-6.17171e-08
0.0140898
3.88252e-08
0.0140898
6.11793e-08
-3.85012e-08
0.0154347
-5.13743e-08
0.0154347
4.40748e-08
0.0154347
5.08424e-08
-4.37439e-08
0.0166652
-4.23451e-08
0.0166652
5.11014e-08
0.0166652
4.18468e-08
-5.0764e-08
0.0178253
-3.58294e-08
0.0178253
5.85711e-08
0.0178253
3.53344e-08
-5.82323e-08
0.018943
-3.19651e-08
0.018943
6.54515e-08
0.018943
3.15003e-08
-6.51118e-08
0.0200366
-3.03205e-08
0.0200366
7.10901e-08
0.0200366
2.98589e-08
-7.07515e-08
0.0211187
-3.01949e-08
0.0211187
7.5272e-08
0.0211187
2.9758e-08
-7.49357e-08
0.0221984
-3.10711e-08
0.0221984
7.80777e-08
0.0221984
3.06379e-08
-7.77435e-08
0.0232826
-3.25359e-08
0.0232826
7.98395e-08
0.0232826
3.21227e-08
-7.95095e-08
0.0243764
-3.43115e-08
0.0243764
8.09109e-08
0.0243764
3.39019e-08
-8.05833e-08
0.025484
-3.60969e-08
0.025484
8.1552e-08
0.025484
3.57041e-08
-8.12298e-08
0.0266089
-3.77882e-08
0.0266089
8.1917e-08
0.0266089
3.7399e-08
-8.15974e-08
0.027754
-3.94265e-08
0.027754
8.22781e-08
0.027754
3.90519e-08
-8.19645e-08
0.0289217
-4.12758e-08
0.0289217
8.31458e-08
0.0289217
4.09044e-08
-8.28345e-08
0.0301142
-4.32991e-08
0.0301142
8.5325e-08
0.0301142
4.29403e-08
-8.50198e-08
0.0313334
-4.45994e-08
0.0313334
8.96393e-08
0.0313334
4.42445e-08
-8.93373e-08
0.0325806
-4.30462e-08
0.0325806
9.58684e-08
0.0325806
4.27024e-08
-9.5572e-08
0.0338571
-3.68061e-08
0.0338571
1.00829e-07
0.0338571
3.64664e-08
-1.00537e-07
0.0351637
-2.84812e-08
0.0351637
9.78641e-08
0.0351637
2.81507e-08
-9.75765e-08
0.0365009
-3.06774e-08
0.0365009
8.00315e-08
0.0365009
3.03527e-08
-7.97493e-08
0.0378694
-6.55529e-08
0.0378694
4.83297e-08
0.0378694
6.52358e-08
-4.80516e-08
0.03927
-1.4572e-07
0.03927
1.58659e-08
0.03927
1.4541e-07
-1.55945e-08
0.040705
-2.24759e-07
0.0407051
-1.4288e-08
0.040705
2.24455e-07
1.45557e-08
0.0421766
-2.63414e-07
0.0421767
-4.42735e-08
0.0421766
2.63119e-07
4.45343e-08
0.0436861
-2.73419e-07
0.0436861
-6.79814e-08
0.0436861
2.73129e-07
6.82379e-08
0.0452345
-2.65255e-07
0.0452345
-8.24951e-08
0.0452345
2.64976e-07
8.27433e-08
0.0468228
-2.47024e-07
0.0468228
-8.75254e-08
0.0468229
2.46752e-07
8.77677e-08
0.0484521
-2.24318e-07
0.0484521
-8.46391e-08
0.0484521
2.24057e-07
8.48736e-08
0.0501232
-2.00589e-07
0.0501232
-7.60217e-08
0.0501232
2.00337e-07
7.62473e-08
0.0518369
-1.77687e-07
0.0518369
-6.38825e-08
0.0518369
1.77448e-07
6.40987e-08
0.0535938
-1.56386e-07
0.0535938
-5.00143e-08
0.0535938
1.56162e-07
5.02157e-08
0.0553947
-1.3683e-07
0.0553946
-3.58201e-08
0.0553947
1.36616e-07
3.60157e-08
0.0572398
-1.18796e-07
0.0572398
-2.22834e-08
0.0572398
1.18605e-07
2.2456e-08
0.0591298
-1.02048e-07
0.0591297
-1.01222e-08
0.0591298
1.01858e-07
1.02976e-08
0.0610646
-8.64772e-08
0.0610646
6.45977e-11
0.0610646
8.63204e-08
7.82397e-11
0.0630445
-7.21958e-08
0.0630444
7.7272e-09
0.0630445
7.20292e-08
-7.57223e-09
0.0650692
-5.9374e-08
0.0650692
1.24092e-08
0.0650692
5.92463e-08
-1.22916e-08
0.0671384
-4.84294e-08
0.0671384
1.43663e-08
0.0671384
4.82863e-08
-1.42314e-08
0.0692516
-3.94917e-08
0.0692516
1.48409e-08
0.0692516
3.93831e-08
-1.47389e-08
0.0714079
-3.31708e-08
0.0714079
1.39473e-08
0.0714079
3.30623e-08
-1.38436e-08
0.0736063
-2.85167e-08
0.0736063
1.20092e-08
0.0736063
2.84361e-08
-1.19322e-08
0.0758451
-2.34385e-08
0.0758451
1.00768e-08
0.0758451
2.33781e-08
-1.00184e-08
0.0781224
-1.71028e-08
0.0781224
7.94853e-09
0.0781224
1.70701e-08
-7.91655e-09
0.0804358
-9.26408e-09
0.0804358
4.41416e-09
0.0804358
9.25928e-09
-4.40935e-09
0.0827821
0.0827821
0.0827821
)
;

boundaryField
{
    inlet
    {
        type            cyclic;
        value           nonuniform List<scalar> 
50
(
-0.0827821
-0.0804358
-0.0781224
-0.0758451
-0.0736063
-0.0714079
-0.0692516
-0.0671384
-0.0650692
-0.0630445
-0.0610646
-0.0591298
-0.0572399
-0.0553947
-0.0535938
-0.0518369
-0.0501232
-0.0484521
-0.0468229
-0.0452345
-0.0436861
-0.0421766
-0.0407049
-0.0392699
-0.0378693
-0.0365009
-0.0351637
-0.0338571
-0.0325806
-0.0313334
-0.0301142
-0.0289217
-0.027754
-0.0266089
-0.025484
-0.0243764
-0.0232826
-0.0221984
-0.0211187
-0.0200366
-0.018943
-0.0178253
-0.0166652
-0.0154347
-0.0140898
-0.0125567
-0.0107069
-0.00830616
-0.00515521
-0.00168319
)
;
    }
    outlet
    {
        type            cyclic;
        value           nonuniform List<scalar> 
50
(
0.0827821
0.0804358
0.0781224
0.0758451
0.0736063
0.0714079
0.0692516
0.0671384
0.0650692
0.0630445
0.0610646
0.0591298
0.0572399
0.0553947
0.0535938
0.0518369
0.0501232
0.0484521
0.0468229
0.0452345
0.0436861
0.0421766
0.0407049
0.0392699
0.0378693
0.0365009
0.0351637
0.0338571
0.0325806
0.0313334
0.0301142
0.0289217
0.027754
0.0266089
0.025484
0.0243764
0.0232826
0.0221984
0.0211187
0.0200366
0.018943
0.0178253
0.0166652
0.0154347
0.0140898
0.0125567
0.0107069
0.00830616
0.00515521
0.00168319
)
;
    }
    fixedWalls-bottom
    {
        type            calculated;
        value           uniform 0;
    }
    fixedWalls-top
    {
        type            symmetry;
        value           uniform 0;
    }
    frontAndBack
    {
        type            empty;
        value           nonuniform List<scalar> 0();
    }
}


// ************************************************************************* //
