/*--------------------------------*- C++ -*----------------------------------*\
  =========                 |
  \\      /  F ield         | OpenFOAM: The Open Source CFD Toolbox
   \\    /   O peration     | Website:  https://openfoam.org
    \\  /    A nd           | Version:  10
     \\/     M anipulation  |
\*---------------------------------------------------------------------------*/
FoamFile
{
    format      ascii;
    class       volSymmTensorField;
    location    "592";
    object      R;
}
// * * * * * * * * * * * * * * * * * * * * * * * * * * * * * * * * * * * * * //

dimensions      [0 2 -2 0 0 0 0];

internalField   nonuniform List<symmTensor> 
200
(
(1.2424e-05 -6.34235e-07 -0 1.2424e-05 -0 1.2424e-05)
(1.24235e-05 -6.34209e-07 -0 1.24235e-05 -0 1.24235e-05)
(1.24224e-05 -6.34148e-07 -0 1.24224e-05 -0 1.24224e-05)
(1.24224e-05 -6.34144e-07 -0 1.24224e-05 -0 1.24224e-05)
(0.000365734 -8.98428e-05 -0 0.000365734 -0 0.000365734)
(0.000365719 -8.98389e-05 -0 0.000365719 -0 0.000365719)
(0.000365687 -8.98306e-05 -0 0.000365687 -0 0.000365687)
(0.000365687 -8.98303e-05 -0 0.000365687 -0 0.000365687)
(0.00193656 -0.000824292 -0 0.00193656 -0 0.00193656)
(0.00193649 -0.00082424 -0 0.00193649 -0 0.00193649)
(0.00193635 -0.000824177 -0 0.00193635 -0 0.00193635)
(0.00193635 -0.000824182 -0 0.00193635 -0 0.00193635)
(0.00342593 -0.0015931 -0 0.00342593 -0 0.00342593)
(0.00342586 -0.00159306 -0 0.00342586 -0 0.00342586)
(0.00342569 -0.00159298 -0 0.00342569 -0 0.00342569)
(0.00342568 -0.00159298 -0 0.00342568 -0 0.00342568)
(0.00426318 -0.00198315 -0 0.00426318 -0 0.00426318)
(0.00426312 -0.00198312 -0 0.00426312 -0 0.00426312)
(0.00426296 -0.00198305 -0 0.00426296 -0 0.00426296)
(0.00426296 -0.00198305 -0 0.00426296 -0 0.00426296)
(0.00472441 -0.00219691 -0 0.00472441 -0 0.00472441)
(0.00472437 -0.00219689 -0 0.00472437 -0 0.00472437)
(0.00472424 -0.00219683 -0 0.00472424 -0 0.00472424)
(0.00472424 -0.00219683 -0 0.00472424 -0 0.00472424)
(0.00498201 -0.00231664 -0 0.004982 -0 0.00498201)
(0.00498199 -0.00231663 -0 0.00498199 -0 0.00498199)
(0.00498188 -0.00231658 -0 0.00498188 -0 0.00498188)
(0.00498189 -0.00231658 -0 0.00498189 -0 0.00498189)
(0.00512561 -0.00238341 -0 0.0051256 -0 0.0051256)
(0.0051256 -0.0023834 -0 0.00512559 -0 0.00512559)
(0.00512552 -0.00238337 -0 0.00512552 -0 0.00512552)
(0.00512554 -0.00238338 -0 0.00512554 -0 0.00512554)
(0.00520161 -0.00241875 -0 0.00520161 -0 0.00520161)
(0.00520161 -0.00241875 -0 0.00520161 -0 0.00520161)
(0.00520155 -0.00241872 -0 0.00520155 -0 0.00520155)
(0.00520159 -0.00241874 -0 0.00520159 -0 0.00520159)
(0.00523494 -0.00243425 -0 0.00523494 -0 0.00523494)
(0.00523494 -0.00243425 -0 0.00523494 -0 0.00523494)
(0.0052349 -0.00243423 -0 0.0052349 -0 0.0052349)
(0.00523496 -0.00243426 -0 0.00523496 -0 0.00523496)
(0.00523966 -0.00243644 -0 0.00523966 -0 0.00523966)
(0.00523966 -0.00243644 -0 0.00523966 -0 0.00523966)
(0.00523963 -0.00243643 -0 0.00523963 -0 0.00523963)
(0.0052397 -0.00243646 -0 0.0052397 -0 0.0052397)
(0.0052241 -0.00242921 -0 0.0052241 -0 0.0052241)
(0.0052241 -0.0024292 -0 0.00522409 -0 0.0052241)
(0.00522408 -0.0024292 -0 0.00522408 -0 0.00522408)
(0.00522415 -0.00242923 -0 0.00522415 -0 0.00522415)
(0.00519344 -0.00241495 -0 0.00519344 -0 0.00519344)
(0.00519343 -0.00241494 -0 0.00519343 -0 0.00519343)
(0.00519342 -0.00241494 -0 0.00519342 -0 0.00519342)
(0.00519349 -0.00241497 -0 0.00519349 -0 0.00519349)
(0.00515102 -0.00239523 -0 0.00515102 -0 0.00515102)
(0.00515101 -0.00239522 -0 0.00515101 -0 0.00515101)
(0.00515101 -0.00239522 -0 0.00515101 -0 0.00515101)
(0.00515106 -0.00239525 -0 0.00515107 -0 0.00515107)
(0.00509908 -0.00237107 -0 0.00509908 -0 0.00509908)
(0.00509907 -0.00237107 -0 0.00509907 -0 0.00509907)
(0.00509908 -0.00237107 -0 0.00509907 -0 0.00509908)
(0.00509912 -0.00237109 -0 0.00509912 -0 0.00509912)
(0.00503915 -0.00234321 -0 0.00503915 -0 0.00503915)
(0.00503915 -0.0023432 -0 0.00503915 -0 0.00503915)
(0.00503915 -0.00234321 -0 0.00503915 -0 0.00503915)
(0.00503918 -0.00234322 -0 0.00503918 -0 0.00503918)
(0.0049723 -0.00231212 -0 0.00497231 -0 0.00497231)
(0.00497231 -0.00231212 -0 0.0049723 -0 0.0049723)
(0.00497232 -0.00231213 -0 0.00497231 -0 0.00497231)
(0.00497233 -0.00231213 -0 0.00497233 -0 0.00497233)
(0.0048993 -0.00227818 -0 0.0048993 -0 0.0048993)
(0.0048993 -0.00227818 -0 0.0048993 -0 0.0048993)
(0.00489932 -0.00227818 -0 0.00489932 -0 0.00489932)
(0.00489931 -0.00227818 -0 0.00489931 -0 0.00489931)
(0.00482069 -0.00224162 -0 0.00482069 -0 0.00482069)
(0.00482069 -0.00224162 -0 0.00482069 -0 0.00482069)
(0.00482072 -0.00224163 -0 0.00482071 -0 0.00482071)
(0.00482069 -0.00224162 -0 0.00482069 -0 0.00482069)
(0.00473687 -0.00220265 -0 0.00473687 -0 0.00473687)
(0.00473688 -0.00220265 -0 0.00473688 -0 0.00473688)
(0.00473691 -0.00220266 -0 0.00473691 -0 0.00473691)
(0.00473687 -0.00220264 -0 0.00473687 -0 0.00473687)
(0.0046482 -0.00216141 -0 0.0046482 -0 0.0046482)
(0.00464822 -0.00216142 -0 0.00464822 -0 0.00464822)
(0.00464825 -0.00216144 -0 0.00464825 -0 0.00464825)
(0.0046482 -0.00216141 -0 0.0046482 -0 0.0046482)
(0.00455503 -0.00211809 -0 0.00455503 -0 0.00455503)
(0.00455506 -0.0021181 -0 0.00455505 -0 0.00455505)
(0.0045551 -0.00211812 -0 0.0045551 -0 0.0045551)
(0.00455503 -0.00211809 -0 0.00455504 -0 0.00455503)
(0.00445779 -0.00207287 -0 0.00445779 -0 0.00445779)
(0.00445782 -0.00207288 -0 0.00445781 -0 0.00445781)
(0.00445786 -0.00207291 -0 0.00445787 -0 0.00445787)
(0.00445779 -0.00207287 -0 0.00445779 -0 0.00445779)
(0.00435703 -0.00202602 -0 0.00435703 -0 0.00435703)
(0.00435706 -0.00202603 -0 0.00435706 -0 0.00435706)
(0.00435711 -0.00202606 -0 0.00435712 -0 0.00435711)
(0.00435702 -0.00202602 -0 0.00435702 -0 0.00435702)
(0.00425346 -0.00197786 -0 0.00425346 -0 0.00425346)
(0.00425348 -0.00197787 -0 0.0042535 -0 0.00425349)
(0.00425354 -0.0019779 -0 0.00425354 -0 0.00425354)
(0.00425346 -0.00197785 -0 0.00425344 -0 0.00425345)
(0.00414785 -0.00192876 -0 0.00414789 -0 0.00414787)
(0.00414788 -0.00192877 -0 0.00414791 -0 0.0041479)
(0.00414795 -0.00192879 -0 0.00414792 -0 0.00414794)
(0.00414787 -0.00192875 -0 0.00414784 -0 0.00414786)
(0.00404087 -0.00187902 -0 0.00404094 -0 0.0040409)
(0.00404091 -0.00187903 -0 0.00404094 -0 0.00404093)
(0.004041 -0.00187905 -0 0.00404093 -0 0.00404096)
(0.00404092 -0.00187902 -0 0.00404089 -0 0.0040409)
(0.00393261 -0.00182196 -0 0.00393268 -0 0.00393265)
(0.00393267 -0.00182207 -0 0.0039327 -0 0.00393268)
(0.00393273 -0.00182153 -0 0.00393266 -0 0.0039327)
(0.00393266 -0.00182121 -0 0.00393263 -0 0.00393264)
(0.00382312 -0.00176489 -0 0.00382316 -0 0.00382313)
(0.00382318 -0.0017649 -0 0.0038232 -0 0.00382319)
(0.0038232 -0.00176439 -0 0.00382316 -0 0.00382318)
(0.00382313 -0.0017642 -0 0.0038231 -0 0.00382311)
(0.00371258 -0.00170608 -0 0.00371259 -0 0.00371258)
(0.00371264 -0.00170612 -0 0.00371267 -0 0.00371265)
(0.00371264 -0.00170554 -0 0.00371263 -0 0.00371264)
(0.00371256 -0.00170531 -0 0.00371254 -0 0.00371255)
(0.00360127 -0.00164523 -0 0.00360126 -0 0.00360127)
(0.00360134 -0.0016453 -0 0.00360135 -0 0.00360134)
(0.00360132 -0.0016447 -0 0.00360133 -0 0.00360132)
(0.00360123 -0.00164444 -0 0.00360122 -0 0.00360123)
(0.00348949 -0.00158233 -0 0.00348947 -0 0.00348948)
(0.00348956 -0.00158244 -0 0.00348957 -0 0.00348956)
(0.00348953 -0.00158185 -0 0.00348955 -0 0.00348954)
(0.00348944 -0.00158156 -0 0.00348944 -0 0.00348944)
(0.00337758 -0.00151737 -0 0.00337756 -0 0.00337757)
(0.00337765 -0.0015175 -0 0.00337765 -0 0.00337765)
(0.00337762 -0.00151695 -0 0.00337764 -0 0.00337763)
(0.00337753 -0.00151665 -0 0.00337753 -0 0.00337753)
(0.00326592 -0.00145031 -0 0.0032659 -0 0.00326591)
(0.00326599 -0.00145047 -0 0.00326598 -0 0.00326599)
(0.00326596 -0.00144996 -0 0.00326598 -0 0.00326597)
(0.00326587 -0.00144966 -0 0.00326588 -0 0.00326588)
(0.00315493 -0.00138114 -0 0.00315491 -0 0.00315492)
(0.003155 -0.0013813 -0 0.00315499 -0 0.003155)
(0.00315497 -0.00138084 -0 0.00315499 -0 0.00315498)
(0.00315489 -0.00138056 -0 0.0031549 -0 0.00315489)
(0.00304509 -0.0013098 -0 0.00304507 -0 0.00304508)
(0.00304515 -0.00130995 -0 0.00304514 -0 0.00304515)
(0.00304513 -0.00130955 -0 0.00304515 -0 0.00304514)
(0.00304504 -0.00130929 -0 0.00304506 -0 0.00304505)
(0.00293691 -0.00123626 -0 0.00293689 -0 0.0029369)
(0.00293696 -0.0012364 -0 0.00293695 -0 0.00293696)
(0.00293694 -0.00123606 -0 0.00293696 -0 0.00293695)
(0.00293686 -0.00123582 -0 0.00293687 -0 0.00293687)
(0.00283096 -0.00116047 -0 0.00283094 -0 0.00283095)
(0.002831 -0.00116059 -0 0.00283099 -0 0.002831)
(0.00283099 -0.0011603 -0 0.00283101 -0 0.002831)
(0.00283091 -0.0011601 -0 0.00283092 -0 0.00283091)
(0.00272787 -0.00108237 -0 0.00272785 -0 0.00272786)
(0.0027279 -0.00108248 -0 0.00272789 -0 0.0027279)
(0.00272789 -0.00108225 -0 0.00272791 -0 0.0027279)
(0.00272781 -0.00108206 -0 0.00272783 -0 0.00272782)
(0.00262832 -0.00100193 -0 0.00262831 -0 0.00262831)
(0.00262835 -0.00100202 -0 0.00262834 -0 0.00262834)
(0.00262834 -0.00100183 -0 0.00262836 -0 0.00262835)
(0.00262827 -0.00100167 -0 0.00262828 -0 0.00262827)
(0.00253306 -0.000919067 -0 0.00253305 -0 0.00253306)
(0.00253308 -0.000919142 -0 0.00253307 -0 0.00253308)
(0.00253308 -0.000918998 -0 0.00253309 -0 0.00253308)
(0.00253301 -0.000918861 -0 0.00253301 -0 0.00253301)
(0.00244289 -0.000833736 -0 0.00244288 -0 0.00244288)
(0.0024429 -0.000833799 -0 0.0024429 -0 0.0024429)
(0.0024429 -0.000833692 -0 0.00244291 -0 0.0024429)
(0.00244284 -0.000833573 -0 0.00244284 -0 0.00244284)
(0.00235866 -0.000745871 -0 0.00235865 -0 0.00235865)
(0.00235867 -0.000745924 -0 0.00235867 -0 0.00235867)
(0.00235866 -0.000745848 -0 0.00235867 -0 0.00235866)
(0.00235862 -0.000745742 -0 0.00235862 -0 0.00235862)
(0.00228129 -0.000655408 -0 0.00228128 -0 0.00228128)
(0.00228129 -0.000655448 -0 0.00228129 -0 0.00228129)
(0.00228128 -0.000655408 -0 0.00228129 -0 0.00228129)
(0.00228125 -0.000655302 -0 0.00228125 -0 0.00228125)
(0.00221173 -0.000562288 -0 0.00221173 -0 0.00221173)
(0.00221173 -0.000562292 -0 0.00221173 -0 0.00221173)
(0.00221173 -0.000562284 -0 0.00221173 -0 0.00221173)
(0.0022117 -0.000562186 -0 0.0022117 -0 0.0022117)
(0.002151 -0.000466394 -0 0.002151 -0 0.002151)
(0.002151 -0.000466418 -0 0.002151 -0 0.002151)
(0.002151 -0.000466395 -0 0.002151 -0 0.002151)
(0.00215097 -0.000466325 -0 0.00215097 -0 0.00215097)
(0.00210015 -0.000367695 -0 0.00210015 -0 0.00210015)
(0.00210014 -0.000367705 -0 0.00210014 -0 0.00210014)
(0.00210014 -0.000367687 -0 0.00210015 -0 0.00210014)
(0.00210011 -0.000367634 -0 0.00210011 -0 0.00210011)
(0.00206025 -0.000266086 -0 0.00206024 -0 0.00206024)
(0.00206024 -0.000266088 -0 0.00206024 -0 0.00206024)
(0.00206024 -0.000266075 -0 0.00206024 -0 0.00206024)
(0.00206021 -0.00026604 -0 0.00206021 -0 0.00206021)
(0.00203245 -0.000161477 -0 0.00203244 -0 0.00203244)
(0.00203243 -0.000161475 -0 0.00203244 -0 0.00203243)
(0.00203243 -0.000161459 -0 0.00203244 -0 0.00203244)
(0.00203241 -0.000161448 -0 0.00203241 -0 0.00203241)
(0.00201792 -5.42047e-05 -0 0.00201791 -0 0.00201792)
(0.00201791 -5.41981e-05 -0 0.00201791 -0 0.00201791)
(0.0020179 -5.41967e-05 -0 0.00201791 -0 0.00201791)
(0.00201789 -5.41912e-05 -0 0.00201788 -0 0.00201788)
)
;

boundaryField
{
    inlet
    {
        type            cyclic;
    }
    outlet
    {
        type            cyclic;
    }
    fixedWalls-bottom
    {
        type            kqRWallFunction;
        value           nonuniform List<symmTensor> 4((1.2424e-05 -0 -0 1.2424e-05 -0 1.2424e-05) (1.24235e-05 -0 -0 1.24235e-05 -0 1.24235e-05) (1.24224e-05 -0 -0 1.24224e-05 -0 1.24224e-05) (1.24224e-05 -0 -0 1.24224e-05 -0 1.24224e-05));
    }
    fixedWalls-top
    {
        type            symmetry;
    }
    frontAndBack
    {
        type            empty;
    }
}


// ************************************************************************* //
