/*--------------------------------*- C++ -*----------------------------------*\
  =========                 |
  \\      /  F ield         | OpenFOAM: The Open Source CFD Toolbox
   \\    /   O peration     | Website:  https://openfoam.org
    \\  /    A nd           | Version:  10
     \\/     M anipulation  |
\*---------------------------------------------------------------------------*/
FoamFile
{
    format      ascii;
    class       volVectorField;
    location    "592";
    object      U;
}
// * * * * * * * * * * * * * * * * * * * * * * * * * * * * * * * * * * * * * //

dimensions      [0 1 -1 0 0 0 0];

internalField   nonuniform List<vector> 
200
(
(0.0913516 -2.52126e-09 0)
(0.0913516 3.41772e-09 0)
(0.091351 1.87886e-09 0)
(0.0913506 -3.35013e-09 0)
(0.271984 -2.48292e-08 0)
(0.271984 1.93802e-08 0)
(0.271981 2.45772e-08 0)
(0.271981 -1.92894e-08 0)
(0.425998 -5.29096e-08 0)
(0.425999 2.65361e-08 0)
(0.425997 5.22527e-08 0)
(0.425996 -2.63299e-08 0)
(0.533804 -7.04761e-08 0)
(0.533805 3.43492e-08 0)
(0.533804 6.99113e-08 0)
(0.533804 -3.40782e-08 0)
(0.608567 -7.3301e-08 0)
(0.608567 3.57238e-08 0)
(0.608567 7.27388e-08 0)
(0.608567 -3.54236e-08 0)
(0.663819 -6.66608e-08 0)
(0.663819 3.73519e-08 0)
(0.663819 6.61158e-08 0)
(0.66382 -3.70336e-08 0)
(0.706899 -5.6482e-08 0)
(0.706898 4.13009e-08 0)
(0.706899 5.59498e-08 0)
(0.706899 -4.0972e-08 0)
(0.741962 -4.6513e-08 0)
(0.741961 4.76094e-08 0)
(0.741961 4.60006e-08 0)
(0.741962 -4.72738e-08 0)
(0.771477 -3.86677e-08 0)
(0.771476 5.50427e-08 0)
(0.771476 3.81724e-08 0)
(0.771476 -5.47039e-08 0)
(0.79698 -3.3502e-08 0)
(0.79698 6.2335e-08 0)
(0.79698 3.30234e-08 0)
(0.79698 -6.19951e-08 0)
(0.819474 -3.0819e-08 0)
(0.819474 6.86354e-08 0)
(0.819474 3.03563e-08 0)
(0.819474 -6.8296e-08 0)
(0.839637 -3.00247e-08 0)
(0.839637 7.35236e-08 0)
(0.839637 2.95758e-08 0)
(0.839637 -7.3186e-08 0)
(0.857946 -3.05035e-08 0)
(0.857946 7.69641e-08 0)
(0.857946 3.00685e-08 0)
(0.857946 -7.66289e-08 0)
(0.874745 -3.17564e-08 0)
(0.874745 7.91924e-08 0)
(0.874745 3.13332e-08 0)
(0.874745 -7.88603e-08 0)
(0.890292 -3.34234e-08 0)
(0.890292 8.05445e-08 0)
(0.890292 3.30122e-08 0)
(0.890292 -8.02158e-08 0)
(0.904782 -3.52174e-08 0)
(0.904782 8.1331e-08 0)
(0.904782 3.48164e-08 0)
(0.904782 -8.1006e-08 0)
(0.918368 -3.69303e-08 0)
(0.918368 8.17376e-08 0)
(0.918368 3.65399e-08 0)
(0.918367 -8.14167e-08 0)
(0.931168 -3.85548e-08 0)
(0.931168 8.19882e-08 0)
(0.931168 3.81732e-08 0)
(0.931168 -8.16714e-08 0)
(0.943278 -4.03568e-08 0)
(0.943278 8.24125e-08 0)
(0.943278 3.99835e-08 0)
(0.943278 -8.21002e-08 0)
(0.954774 -4.25647e-08 0)
(0.954774 8.38032e-08 0)
(0.954774 4.2198e-08 0)
(0.954773 -8.34951e-08 0)
(0.965714 -4.46579e-08 0)
(0.965714 8.72549e-08 0)
(0.965714 4.42993e-08 0)
(0.965714 -8.69519e-08 0)
(0.976144 -4.45715e-08 0)
(0.976143 9.32541e-08 0)
(0.976143 4.42219e-08 0)
(0.976143 -9.29551e-08 0)
(0.986092 -3.93091e-08 0)
(0.986091 9.9894e-08 0)
(0.986092 3.89705e-08 0)
(0.986092 -9.96e-08 0)
(0.995578 -2.9156e-08 0)
(0.995577 1.01566e-07 0)
(0.995578 2.88239e-08 0)
(0.995578 -1.01275e-07 0)
(1.00461 -2.46176e-08 0)
(1.00461 9.12126e-08 0)
(1.00461 2.42911e-08 0)
(1.00461 -9.09263e-08 0)
(1.0132 -4.70521e-08 0)
(1.0132 6.71236e-08 0)
(1.0132 4.67317e-08 0)
(1.0132 -6.6842e-08 0)
(1.02136 -1.10617e-07 0)
(1.02137 3.59812e-08 0)
(1.02137 1.103e-07 0)
(1.02136 -3.57117e-08 0)
(1.02915 -1.79126e-07 0)
(1.02916 -2.51467e-09 0)
(1.02916 1.78813e-07 0)
(1.02915 2.78201e-09 0)
(1.03662 -2.48327e-07 0)
(1.03662 -3.26188e-08 0)
(1.03662 2.4803e-07 0)
(1.03661 3.28857e-08 0)
(1.04376 -2.74169e-07 0)
(1.04376 -5.88983e-08 0)
(1.04376 2.73878e-07 0)
(1.04376 5.91587e-08 0)
(1.05061 -2.72951e-07 0)
(1.05061 -7.77756e-08 0)
(1.05061 2.72668e-07 0)
(1.05061 7.80284e-08 0)
(1.05717 -2.57702e-07 0)
(1.05717 -8.72029e-08 0)
(1.05717 2.57427e-07 0)
(1.05717 8.74484e-08 0)
(1.06344 -2.36021e-07 0)
(1.06344 -8.77382e-08 0)
(1.06344 2.35754e-07 0)
(1.06344 8.79766e-08 0)
(1.06943 -2.12206e-07 0)
(1.06942 -8.13705e-08 0)
(1.06942 2.1195e-07 0)
(1.06943 8.16008e-08 0)
(1.07514 -1.88649e-07 0)
(1.07514 -7.04534e-08 0)
(1.07514 1.88404e-07 0)
(1.07514 7.06747e-08 0)
(1.08057 -1.66504e-07 0)
(1.08057 -5.705e-08 0)
(1.08057 1.66273e-07 0)
(1.08057 5.72591e-08 0)
(1.08572 -1.4613e-07 0)
(1.08572 -4.27436e-08 0)
(1.08572 1.45911e-07 0)
(1.08572 4.29426e-08 0)
(1.09059 -1.27386e-07 0)
(1.09059 -2.86886e-08 0)
(1.09059 1.27183e-07 0)
(1.09059 2.88727e-08 0)
(1.09517 -1.10077e-07 0)
(1.09517 -1.56768e-08 0)
(1.09517 1.09885e-07 0)
(1.09517 1.58514e-08 0)
(1.09946 -9.39747e-08 0)
(1.09946 -4.37379e-09 0)
(1.09946 9.38005e-08 0)
(1.09946 4.53255e-09 0)
(1.10344 -7.90828e-08 0)
(1.10344 4.59908e-09 0)
(1.10344 7.89195e-08 0)
(1.10344 -4.44955e-09 0)
(1.10711 -6.55127e-08 0)
(1.10711 1.07033e-08 0)
(1.10711 6.53651e-08 0)
(1.10711 -1.05676e-08 0)
(1.11045 -5.35731e-08 0)
(1.11045 1.4037e-08 0)
(1.11045 5.34368e-08 0)
(1.11045 -1.39108e-08 0)
(1.11345 -4.35272e-08 0)
(1.11345 1.54377e-08 0)
(1.11345 4.3401e-08 0)
(1.11345 -1.532e-08 0)
(1.1161 -3.63375e-08 0)
(1.1161 1.45894e-08 0)
(1.1161 3.62288e-08 0)
(1.1161 -1.44865e-08 0)
(1.11836 -3.05793e-08 0)
(1.11836 1.3317e-08 0)
(1.11836 3.0485e-08 0)
(1.11836 -1.32269e-08 0)
(1.12023 -2.58663e-08 0)
(1.12023 1.11963e-08 0)
(1.12023 2.57969e-08 0)
(1.12023 -1.11287e-08 0)
(1.12168 -2.0527e-08 0)
(1.12168 9.04609e-09 0)
(1.12168 2.04829e-08 0)
(1.12168 -9.00205e-09 0)
(1.12268 -1.3593e-08 0)
(1.12268 6.12898e-09 0)
(1.12268 1.35749e-08 0)
(1.12268 -6.10941e-09 0)
(1.1232 -4.89813e-09 0)
(1.1232 2.29372e-09 0)
(1.1232 4.89834e-09 0)
(1.1232 -2.29458e-09 0)
)
;

boundaryField
{
    inlet
    {
        type            cyclic;
    }
    outlet
    {
        type            cyclic;
    }
    fixedWalls-bottom
    {
        type            noSlip;
    }
    fixedWalls-top
    {
        type            symmetry;
    }
    frontAndBack
    {
        type            empty;
    }
}


// ************************************************************************* //
