/*--------------------------------*- C++ -*----------------------------------*\
  =========                 |
  \\      /  F ield         | OpenFOAM: The Open Source CFD Toolbox
   \\    /   O peration     | Website:  https://openfoam.org
    \\  /    A nd           | Version:  10
     \\/     M anipulation  |
\*---------------------------------------------------------------------------*/
FoamFile
{
    format      ascii;
    class       volScalarField;
    location    "5000";
    object      nut;
}
// * * * * * * * * * * * * * * * * * * * * * * * * * * * * * * * * * * * * * //

dimensions      [0 2 -1 0 0 0 0];

internalField   nonuniform List<scalar> 
400
(
1.05296e-08
1.05301e-08
1.05296e-08
1.05295e-08
1.68426e-06
1.68434e-06
1.68427e-06
1.68425e-06
2.22888e-05
2.22899e-05
2.22891e-05
2.22888e-05
7.19772e-05
7.19784e-05
7.19756e-05
7.19748e-05
0.000132953
0.000132953
0.000132948
0.000132946
0.000203848
0.000203847
0.000203838
0.000203836
0.000282037
0.000282037
0.000282025
0.000282021
0.00036528
0.000365282
0.000365267
0.000365261
0.000451523
0.000451523
0.000451505
0.000451499
0.000538161
0.000538135
0.000538114
0.000538121
0.000625065
0.000625043
0.000625023
0.000625032
0.000713063
0.00071304
0.000713025
0.000713039
0.000801924
0.000801901
0.000801889
0.000801909
0.000891482
0.000891463
0.000891453
0.000891481
0.000981625
0.00098161
0.000981603
0.000981641
0.00107228
0.00107227
0.00107226
0.00107231
0.00116338
0.00116338
0.00116338
0.00116343
0.00125492
0.00125491
0.00125492
0.00125498
0.00134687
0.00134686
0.00134687
0.00134694
0.00143922
0.00143922
0.00143923
0.00143931
0.00153199
0.00153199
0.001532
0.00153209
0.00162519
0.00162519
0.00162521
0.00162529
0.00171885
0.00171884
0.00171886
0.00171895
0.00181297
0.00181297
0.00181299
0.00181307
0.0019076
0.0019076
0.00190762
0.00190769
0.00200275
0.00200275
0.00200278
0.00200284
0.00209847
0.00209847
0.0020985
0.00209855
0.00219478
0.00219479
0.00219483
0.00219484
0.00229171
0.00229172
0.00229177
0.00229175
0.0023893
0.00238931
0.00238936
0.00238932
0.00248755
0.00248758
0.00248761
0.00248754
0.00258586
0.00258588
0.00258589
0.00258583
0.00268117
0.00268119
0.00268119
0.00268114
0.00277465
0.00277466
0.00277466
0.00277463
0.00286706
0.00286707
0.00286708
0.00286705
0.00295889
0.0029589
0.00295891
0.00295888
0.00305043
0.00305044
0.00305046
0.00305043
0.00314188
0.00314189
0.00314191
0.00314189
0.00323343
0.00323343
0.00323346
0.00323343
0.00332531
0.00332531
0.00332536
0.00332532
0.00341791
0.00341793
0.00341799
0.00341793
0.00351185
0.00351189
0.00351196
0.00351186
0.00360804
0.0036081
0.00360815
0.00360803
0.0037077
0.00370776
0.00370778
0.00370765
0.00381233
0.00381237
0.00381234
0.00381224
0.0039236
0.00392356
0.00392345
0.0039235
0.00404297
0.0040428
0.00404264
0.00404296
0.00417114
0.00417085
0.00417067
0.00417141
0.00430718
0.00430682
0.00430673
0.0043079
0.00444725
0.00444697
0.004447
0.00444833
0.00458298
0.00458286
0.00458297
0.0045836
0.00469969
0.00469951
0.00469944
0.00469767
0.00480955
0.00480933
0.00480923
0.00480736
0.00491851
0.00491825
0.00491812
0.00491616
0.00502609
0.00502585
0.00502569
0.00502365
0.00513187
0.00513182
0.00513158
0.0051295
0.00523583
0.00523582
0.00523551
0.00523343
0.00533766
0.00533772
0.00533729
0.00533526
0.00543726
0.00543738
0.00543681
0.00543486
0.00553458
0.00553463
0.00553407
0.00553215
0.00562952
0.00562954
0.005629
0.00562711
0.0057221
0.00572212
0.00572159
0.00571974
0.00581233
0.00581236
0.00581185
0.00581006
0.00590024
0.00590029
0.00589981
0.00589806
0.00598585
0.00598592
0.00598546
0.00598377
0.00606916
0.00606924
0.00606881
0.00606717
0.00615017
0.00615024
0.00614986
0.00614825
0.00622888
0.0062289
0.00622859
0.00622701
0.00630532
0.00630513
0.00630502
0.00630342
0.00637931
0.00637912
0.00637902
0.00637749
0.00645091
0.00645074
0.00645065
0.0064492
0.0065201
0.00652
0.00651988
0.00651852
0.00658684
0.00658689
0.00658672
0.00658547
0.0066513
0.00665143
0.00665117
0.00665005
0.00671343
0.00671354
0.0067133
0.00671227
0.00677322
0.00677331
0.00677311
0.00677216
0.00683072
0.0068308
0.00683063
0.00682977
0.00688597
0.00688605
0.0068859
0.00688515
0.00693903
0.00693911
0.00693899
0.00693835
0.00698996
0.00699005
0.00698996
0.00698943
0.00703884
0.00703894
0.00703888
0.00703845
0.00708573
0.00708586
0.0070858
0.0070855
0.0071307
0.00713086
0.0071308
0.00713062
0.00717383
0.00717399
0.00717393
0.00717387
0.00721518
0.00721529
0.00721531
0.00721528
0.00725472
0.0072548
0.00725487
0.00725492
0.0072925
0.00729249
0.00729268
0.00729279
0.0073285
0.00732847
0.00732868
0.00732888
0.00736271
0.00736266
0.00736288
0.00736315
0.00739504
0.00739503
0.00739522
0.00739555
0.00742542
0.00742552
0.0074256
0.00742598
0.00745373
0.00745382
0.00745392
0.00745433
0.00747982
0.00747982
0.00748003
0.00748045
0.00750348
0.00750354
0.00750367
0.00750415
0.00752446
0.00752473
0.00752466
0.00752522
0.00754268
0.00754294
0.00754287
0.00754341
0.0075578
0.00755802
0.00755799
0.00755848
0.00756956
0.0075697
0.00756976
0.00757017
0.00757775
0.00757768
0.00757793
0.00757825
0.00758198
0.00758192
0.00758219
0.00758252
)
;

boundaryField
{
    inlet
    {
        type            cyclic;
    }
    outlet
    {
        type            cyclic;
    }
    fixedWalls-bottom
    {
        type            nutkWallFunction;
        Cmu             0.09;
        kappa           0.41;
        E               9.8;
        value           uniform 0;
    }
    fixedWalls-top
    {
        type            symmetry;
    }
    frontAndBack
    {
        type            empty;
    }
}


// ************************************************************************* //
