/*--------------------------------*- C++ -*----------------------------------*\
  =========                 |
  \\      /  F ield         | OpenFOAM: The Open Source CFD Toolbox
   \\    /   O peration     | Website:  https://openfoam.org
    \\  /    A nd           | Version:  10
     \\/     M anipulation  |
\*---------------------------------------------------------------------------*/
FoamFile
{
    format      ascii;
    class       volScalarField;
    location    "5000";
    object      p;
}
// * * * * * * * * * * * * * * * * * * * * * * * * * * * * * * * * * * * * * //

dimensions      [0 2 -2 0 0 0 0];

internalField   nonuniform List<scalar> 
400
(
9.90554e-13
1.58147e-07
9.88303e-08
-5.83026e-08
-1.78458e-10
1.58152e-07
9.90132e-08
-5.83072e-08
-3.7222e-10
1.58184e-07
9.9208e-08
-5.83395e-08
-4.36691e-10
1.58075e-07
9.92725e-08
-5.82313e-08
-2.76174e-10
1.57591e-07
9.91124e-08
-5.77479e-08
1.37315e-10
1.5674e-07
9.86995e-08
-5.68971e-08
7.91042e-10
1.5572e-07
9.80465e-08
-5.58778e-08
1.66377e-09
1.54739e-07
9.71744e-08
-5.48982e-08
2.65652e-09
1.53674e-07
9.61824e-08
-5.38343e-08
3.4772e-09
1.51945e-07
9.53624e-08
-5.21054e-08
3.97546e-09
1.49756e-07
9.4865e-08
-4.99183e-08
4.17908e-09
1.47793e-07
9.46619e-08
-4.79553e-08
4.07291e-09
1.46074e-07
9.4769e-08
-4.62378e-08
3.67472e-09
1.44553e-07
9.51677e-08
-4.47182e-08
2.98648e-09
1.43253e-07
9.58568e-08
-4.34185e-08
2.00323e-09
1.42157e-07
9.68407e-08
-4.23239e-08
7.31875e-10
1.41218e-07
9.81129e-08
-4.13863e-08
-8.07126e-10
1.40382e-07
9.96526e-08
-4.05506e-08
-2.57387e-09
1.39622e-07
1.0142e-07
-3.97922e-08
-4.52198e-09
1.38932e-07
1.03369e-07
-3.91033e-08
-6.60564e-09
1.38293e-07
1.05454e-07
-3.84651e-08
-8.77753e-09
1.37686e-07
1.07626e-07
-3.78597e-08
-1.09863e-08
1.37099e-07
1.09836e-07
-3.72739e-08
-1.3181e-08
1.36524e-07
1.12032e-07
-3.66998e-08
-1.53082e-08
1.35962e-07
1.1416e-07
-3.61389e-08
-1.73179e-08
1.35438e-07
1.1617e-07
-3.56167e-08
-1.91548e-08
1.35014e-07
1.18009e-07
-3.51938e-08
-2.0764e-08
1.34752e-07
1.19619e-07
-3.49328e-08
-2.20981e-08
1.34649e-07
1.20954e-07
-3.48308e-08
-2.30974e-08
1.3465e-07
1.21954e-07
-3.4834e-08
-2.36955e-08
1.34651e-07
1.22554e-07
-3.4836e-08
-2.40083e-08
1.34426e-07
1.22867e-07
-3.46125e-08
-2.42802e-08
1.33953e-07
1.23141e-07
-3.41411e-08
-2.46536e-08
1.33446e-07
1.23515e-07
-3.36349e-08
-2.51687e-08
1.33001e-07
1.24032e-07
-3.31917e-08
-2.58215e-08
1.32616e-07
1.24686e-07
-3.28081e-08
-2.65942e-08
1.32263e-07
1.2546e-07
-3.24563e-08
-2.74712e-08
1.31938e-07
1.26338e-07
-3.21323e-08
-2.84354e-08
1.31675e-07
1.27304e-07
-3.18711e-08
-2.94579e-08
1.31547e-07
1.28327e-07
-3.17449e-08
-3.04718e-08
1.31637e-07
1.29343e-07
-3.18365e-08
-3.13603e-08
1.31993e-07
1.30233e-07
-3.21931e-08
-3.19698e-08
1.32554e-07
1.30844e-07
-3.27562e-08
-3.21888e-08
1.33092e-07
1.31064e-07
-3.32957e-08
-3.20935e-08
1.33179e-07
1.30971e-07
-3.33841e-08
-3.21484e-08
1.32271e-07
1.31028e-07
-3.24782e-08
-3.33675e-08
1.29942e-07
1.32249e-07
-3.01501e-08
-3.72711e-08
1.26251e-07
1.36153e-07
-2.64601e-08
-4.52604e-08
1.22061e-07
1.44144e-07
-2.22691e-08
-5.68101e-08
1.18804e-07
1.55695e-07
-1.90127e-08
-6.66121e-08
1.17206e-07
1.65499e-07
-1.74193e-08
-6.53349e-08
1.15833e-07
1.64223e-07
-1.60532e-08
-5.45491e-08
1.13495e-07
1.53439e-07
-1.37197e-08
-4.25775e-08
1.10587e-07
1.41469e-07
-1.08126e-08
-3.08e-08
1.07558e-07
1.29694e-07
-7.78468e-09
-1.87936e-08
1.04981e-07
1.1769e-07
-5.20835e-09
-6.47241e-09
1.02817e-07
1.05371e-07
-3.04514e-09
6.02494e-09
1.00549e-07
9.28757e-08
-7.77144e-10
1.85988e-08
9.79576e-08
8.0304e-08
1.81341e-09
3.09323e-08
9.50608e-08
6.79726e-08
4.70948e-09
4.27315e-08
9.20581e-08
5.61757e-08
7.71121e-09
5.39201e-08
8.91606e-08
4.49891e-08
1.06075e-08
6.44594e-08
8.64868e-08
3.44519e-08
1.32801e-08
7.43208e-08
8.40896e-08
2.45924e-08
1.56759e-08
8.35099e-08
8.19788e-08
1.54052e-08
1.77854e-08
9.20665e-08
8.01432e-08
6.85057e-09
1.96193e-08
1.00014e-07
7.8559e-08
-1.0948e-09
2.1202e-08
1.0727e-07
7.71665e-08
-8.34891e-09
2.25927e-08
1.13631e-07
7.5837e-08
-1.4708e-08
2.39205e-08
1.19182e-07
7.45281e-08
-2.02569e-08
2.52275e-08
1.24188e-07
7.33191e-08
-2.52607e-08
2.64348e-08
1.28721e-07
7.23179e-08
-2.97923e-08
2.74341e-08
1.32844e-07
7.16565e-08
-3.39135e-08
2.80939e-08
1.36624e-07
7.11929e-08
-3.76917e-08
2.85557e-08
1.39975e-07
7.07124e-08
-4.104e-08
2.90345e-08
1.42771e-07
7.02415e-08
-4.3834e-08
2.95037e-08
1.44999e-07
6.98381e-08
-4.60602e-08
2.99054e-08
1.46666e-07
6.95298e-08
-4.77256e-08
3.0212e-08
1.47778e-07
6.93274e-08
-4.88363e-08
3.04128e-08
1.4835e-07
6.92346e-08
-4.94066e-08
3.0504e-08
1.48416e-07
6.92507e-08
-4.94711e-08
3.04864e-08
1.48051e-07
6.93713e-08
-4.91043e-08
3.03643e-08
1.47322e-07
6.95665e-08
-4.83739e-08
3.01677e-08
1.46262e-07
6.97812e-08
-4.73127e-08
2.99516e-08
1.4491e-07
7.00225e-08
-4.59584e-08
2.97089e-08
1.43277e-07
7.03188e-08
-4.43243e-08
2.94113e-08
1.41329e-07
7.0656e-08
-4.23753e-08
2.90729e-08
1.39133e-07
7.09883e-08
-4.01776e-08
2.87394e-08
1.36841e-07
7.1273e-08
-3.78848e-08
2.84536e-08
1.34606e-07
7.15281e-08
-3.56488e-08
2.81976e-08
1.32579e-07
7.17677e-08
-3.36208e-08
2.7957e-08
1.30723e-07
7.19949e-08
-3.17645e-08
2.77288e-08
1.28903e-07
7.22173e-08
-2.9943e-08
2.75056e-08
1.27197e-07
7.24102e-08
-2.82366e-08
2.73119e-08
1.25785e-07
7.25673e-08
-2.68239e-08
2.71541e-08
1.24673e-07
7.27012e-08
-2.57117e-08
2.70196e-08
1.23789e-07
7.28109e-08
-2.48271e-08
2.69094e-08
1.23108e-07
7.28993e-08
-2.41457e-08
2.68207e-08
1.22623e-07
7.29639e-08
-2.36612e-08
2.67557e-08
1.2234e-07
7.30012e-08
-2.33777e-08
2.67184e-08
)
;

boundaryField
{
    inlet
    {
        type            cyclic;
    }
    outlet
    {
        type            cyclic;
    }
    fixedWalls-bottom
    {
        type            zeroGradient;
    }
    fixedWalls-top
    {
        type            symmetry;
    }
    frontAndBack
    {
        type            empty;
    }
}


// ************************************************************************* //
