/*--------------------------------*- C++ -*----------------------------------*\
  =========                 |
  \\      /  F ield         | OpenFOAM: The Open Source CFD Toolbox
   \\    /   O peration     | Website:  https://openfoam.org
    \\  /    A nd           | Version:  10
     \\/     M anipulation  |
\*---------------------------------------------------------------------------*/
FoamFile
{
    format      ascii;
    class       volSymmTensorField;
    location    "5000";
    object      R;
}
// * * * * * * * * * * * * * * * * * * * * * * * * * * * * * * * * * * * * * //

dimensions      [0 2 -2 0 0 0 0];

internalField   nonuniform List<symmTensor> 
400
(
(8.24484e-06 -3.49e-07 -0 8.24484e-06 -0 8.24484e-06)
(8.24521e-06 -3.49018e-07 -0 8.24521e-06 -0 8.24521e-06)
(8.24486e-06 -3.49001e-07 -0 8.24486e-06 -0 8.24486e-06)
(8.24474e-06 -3.48994e-07 -0 8.24474e-06 -0 8.24474e-06)
(0.000243104 -5.18759e-05 -0 0.000243104 -0 0.000243104)
(0.000243115 -5.18786e-05 -0 0.000243115 -0 0.000243115)
(0.000243105 -5.18762e-05 -0 0.000243105 -0 0.000243105)
(0.000243101 -5.18753e-05 -0 0.000243101 -0 0.000243101)
(0.00137306 -0.000549179 -0 0.00137306 -0 0.00137306)
(0.00137311 -0.000549206 -0 0.00137311 -0 0.00137311)
(0.00137306 -0.000549184 -0 0.00137306 -0 0.00137306)
(0.00137304 -0.000549177 -0 0.00137304 -0 0.00137304)
(0.00269037 -0.00125103 -0 0.00269037 -0 0.00269037)
(0.0026904 -0.00125104 -0 0.0026904 -0 0.0026904)
(0.00269031 -0.001251 -0 0.0026903 -0 0.0026903)
(0.00269028 -0.00125098 -0 0.00269028 -0 0.00269028)
(0.00350759 -0.00163118 -0 0.00350759 -0 0.00350759)
(0.00350758 -0.00163117 -0 0.00350758 -0 0.00350758)
(0.00350746 -0.00163112 -0 0.00350746 -0 0.00350746)
(0.00350744 -0.00163111 -0 0.00350745 -0 0.00350744)
(0.00399889 -0.00185959 -0 0.00399889 -0 0.00399889)
(0.00399885 -0.00185957 -0 0.00399885 -0 0.00399885)
(0.00399871 -0.0018595 -0 0.00399871 -0 0.00399871)
(0.00399871 -0.0018595 -0 0.00399871 -0 0.00399871)
(0.0043006 -0.00199979 -0 0.0043006 -0 0.0043006)
(0.00430054 -0.00199976 -0 0.00430054 -0 0.00430054)
(0.00430039 -0.00199969 -0 0.00430039 -0 0.00430039)
(0.0043004 -0.0019997 -0 0.00430041 -0 0.00430041)
(0.00449272 -0.00208911 -0 0.00449272 -0 0.00449272)
(0.00449265 -0.00208908 -0 0.00449265 -0 0.00449265)
(0.00449251 -0.00208902 -0 0.00449251 -0 0.00449251)
(0.00449253 -0.00208903 -0 0.00449253 -0 0.00449253)
(0.00461928 -0.00214797 -0 0.00461928 -0 0.00461928)
(0.00461923 -0.00214794 -0 0.00461922 -0 0.00461922)
(0.00461909 -0.00214788 -0 0.00461909 -0 0.00461909)
(0.00461912 -0.00214789 -0 0.00461912 -0 0.00461912)
(0.00470465 -0.0021844 -0 0.00470465 -0 0.00470465)
(0.0047046 -0.00218431 -0 0.00470459 -0 0.0047046)
(0.00470448 -0.00218425 -0 0.00470448 -0 0.00470448)
(0.00470451 -0.0021843 -0 0.00470451 -0 0.00470451)
(0.00476278 -0.00220799 -0 0.00476277 -0 0.00476278)
(0.00476274 -0.00220793 -0 0.00476273 -0 0.00476274)
(0.00476264 -0.00220788 -0 0.00476264 -0 0.00476264)
(0.00476267 -0.00220793 -0 0.00476267 -0 0.00476267)
(0.00480177 -0.00222442 -0 0.00480177 -0 0.00480177)
(0.00480174 -0.00222436 -0 0.00480174 -0 0.00480174)
(0.00480165 -0.00222433 -0 0.00480166 -0 0.00480166)
(0.00480169 -0.00222438 -0 0.00480169 -0 0.00480169)
(0.00482666 -0.00223478 -0 0.00482666 -0 0.00482666)
(0.00482663 -0.00223473 -0 0.00482663 -0 0.00482663)
(0.00482656 -0.00223471 -0 0.00482657 -0 0.00482656)
(0.0048266 -0.00223476 -0 0.0048266 -0 0.0048266)
(0.00484085 -0.00224059 -0 0.00484085 -0 0.00484085)
(0.00484083 -0.00224055 -0 0.00484083 -0 0.00484083)
(0.00484077 -0.00224054 -0 0.00484077 -0 0.00484077)
(0.00484081 -0.0022406 -0 0.00484081 -0 0.00484081)
(0.00484673 -0.00224289 -0 0.00484672 -0 0.00484673)
(0.00484671 -0.00224286 -0 0.00484671 -0 0.00484671)
(0.00484666 -0.00224285 -0 0.00484667 -0 0.00484666)
(0.0048467 -0.00224292 -0 0.0048467 -0 0.0048467)
(0.004846 -0.00224241 -0 0.004846 -0 0.004846)
(0.00484599 -0.0022424 -0 0.00484599 -0 0.00484599)
(0.00484595 -0.00224239 -0 0.00484595 -0 0.00484595)
(0.00484599 -0.00224246 -0 0.00484599 -0 0.00484599)
(0.00483994 -0.00223969 -0 0.00483993 -0 0.00483994)
(0.00483992 -0.00223969 -0 0.00483992 -0 0.00483992)
(0.00483989 -0.00223969 -0 0.0048399 -0 0.0048399)
(0.00483994 -0.00223976 -0 0.00483994 -0 0.00483994)
(0.00482948 -0.00223513 -0 0.00482947 -0 0.00482948)
(0.00482946 -0.00223512 -0 0.00482946 -0 0.00482946)
(0.00482944 -0.00223513 -0 0.00482945 -0 0.00482945)
(0.00482949 -0.00223521 -0 0.00482949 -0 0.00482949)
(0.00481535 -0.00222901 -0 0.00481534 -0 0.00481534)
(0.00481533 -0.00222902 -0 0.00481533 -0 0.00481533)
(0.00481532 -0.00222903 -0 0.00481532 -0 0.00481532)
(0.00481536 -0.0022291 -0 0.00481536 -0 0.00481536)
(0.0047981 -0.00222158 -0 0.0047981 -0 0.0047981)
(0.00479809 -0.00222159 -0 0.00479809 -0 0.00479809)
(0.00479808 -0.0022216 -0 0.00479809 -0 0.00479808)
(0.00479812 -0.00222168 -0 0.00479813 -0 0.00479812)
(0.0047782 -0.002213 -0 0.00477819 -0 0.00477819)
(0.00477818 -0.00221301 -0 0.00477818 -0 0.00477818)
(0.00477818 -0.00221304 -0 0.00477818 -0 0.00477818)
(0.00477822 -0.00221311 -0 0.00477822 -0 0.00477822)
(0.00475598 -0.00220343 -0 0.00475598 -0 0.00475598)
(0.00475597 -0.00220344 -0 0.00475597 -0 0.00475597)
(0.00475596 -0.00220347 -0 0.00475597 -0 0.00475597)
(0.004756 -0.00220354 -0 0.004756 -0 0.004756)
(0.00473174 -0.00219297 -0 0.00473174 -0 0.00473174)
(0.00473173 -0.00219298 -0 0.00473173 -0 0.00473173)
(0.00473173 -0.00219301 -0 0.00473173 -0 0.00473173)
(0.00473177 -0.00219307 -0 0.00473177 -0 0.00473177)
(0.00470572 -0.00218171 -0 0.00470572 -0 0.00470572)
(0.00470571 -0.00218172 -0 0.00470571 -0 0.00470571)
(0.00470571 -0.00218175 -0 0.00470571 -0 0.00470571)
(0.00470575 -0.00218181 -0 0.00470575 -0 0.00470575)
(0.00467812 -0.00216973 -0 0.00467812 -0 0.00467812)
(0.00467811 -0.00216974 -0 0.00467811 -0 0.00467811)
(0.00467811 -0.00216977 -0 0.00467811 -0 0.00467811)
(0.00467814 -0.00216982 -0 0.00467814 -0 0.00467814)
(0.00464909 -0.00215708 -0 0.00464909 -0 0.00464909)
(0.00464908 -0.0021571 -0 0.00464909 -0 0.00464909)
(0.00464909 -0.00215712 -0 0.00464909 -0 0.00464909)
(0.00464912 -0.00215716 -0 0.00464912 -0 0.00464912)
(0.0046188 -0.00214382 -0 0.0046188 -0 0.0046188)
(0.00461879 -0.00214384 -0 0.00461879 -0 0.00461879)
(0.0046188 -0.00214386 -0 0.00461879 -0 0.0046188)
(0.00461882 -0.00214389 -0 0.00461882 -0 0.00461882)
(0.00458735 -0.00212999 -0 0.00458735 -0 0.00458735)
(0.00458734 -0.00213 -0 0.00458734 -0 0.00458734)
(0.00458735 -0.00213002 -0 0.00458735 -0 0.00458735)
(0.00458737 -0.00213004 -0 0.00458737 -0 0.00458737)
(0.00455485 -0.00211562 -0 0.00455485 -0 0.00455485)
(0.00455485 -0.00211562 -0 0.00455485 -0 0.00455485)
(0.00455486 -0.00211565 -0 0.00455485 -0 0.00455486)
(0.00455487 -0.00211566 -0 0.00455487 -0 0.00455487)
(0.00452141 -0.00210073 -0 0.00452141 -0 0.00452141)
(0.0045214 -0.00210074 -0 0.00452141 -0 0.00452141)
(0.00452141 -0.00210076 -0 0.00452141 -0 0.00452141)
(0.00452142 -0.00210076 -0 0.00452142 -0 0.00452142)
(0.0044871 -0.00208548 -0 0.0044871 -0 0.0044871)
(0.00448709 -0.00208549 -0 0.0044871 -0 0.0044871)
(0.0044871 -0.0020855 -0 0.0044871 -0 0.0044871)
(0.00448711 -0.00208549 -0 0.00448711 -0 0.00448711)
(0.00445199 -0.00207017 -0 0.00445199 -0 0.00445199)
(0.00445199 -0.00207017 -0 0.00445199 -0 0.00445199)
(0.004452 -0.00207018 -0 0.004452 -0 0.004452)
(0.00445199 -0.00207018 -0 0.00445199 -0 0.00445199)
(0.0044161 -0.00205349 -0 0.0044161 -0 0.0044161)
(0.0044161 -0.00205349 -0 0.0044161 -0 0.0044161)
(0.00441611 -0.00205349 -0 0.00441612 -0 0.00441612)
(0.00441611 -0.00205349 -0 0.0044161 -0 0.0044161)
(0.00437944 -0.00203644 -0 0.00437944 -0 0.00437944)
(0.00437944 -0.00203644 -0 0.00437944 -0 0.00437944)
(0.00437945 -0.00203645 -0 0.00437945 -0 0.00437945)
(0.00437944 -0.00203644 -0 0.00437944 -0 0.00437944)
(0.00434199 -0.00201902 -0 0.00434198 -0 0.00434198)
(0.00434199 -0.00201902 -0 0.00434199 -0 0.00434199)
(0.004342 -0.00201903 -0 0.00434201 -0 0.004342)
(0.00434198 -0.00201902 -0 0.00434198 -0 0.00434198)
(0.00430373 -0.00200124 -0 0.00430373 -0 0.00430373)
(0.00430374 -0.00200124 -0 0.00430374 -0 0.00430374)
(0.00430375 -0.00200125 -0 0.00430376 -0 0.00430376)
(0.00430373 -0.00200123 -0 0.00430373 -0 0.00430373)
(0.00426467 -0.00198307 -0 0.00426467 -0 0.00426467)
(0.00426468 -0.00198308 -0 0.00426468 -0 0.00426468)
(0.0042647 -0.00198308 -0 0.0042647 -0 0.0042647)
(0.00426467 -0.00198307 -0 0.00426466 -0 0.00426466)
(0.00422479 -0.00196453 -0 0.00422479 -0 0.00422479)
(0.0042248 -0.00196453 -0 0.0042248 -0 0.0042248)
(0.00422482 -0.00196454 -0 0.00422482 -0 0.00422482)
(0.00422478 -0.00196452 -0 0.00422478 -0 0.00422478)
(0.00418409 -0.0019456 -0 0.00418408 -0 0.00418409)
(0.00418409 -0.0019456 -0 0.0041841 -0 0.0041841)
(0.00418412 -0.00194562 -0 0.00418412 -0 0.00418412)
(0.00418408 -0.0019456 -0 0.00418408 -0 0.00418408)
(0.00414256 -0.00192629 -0 0.00414255 -0 0.00414255)
(0.00414257 -0.00192629 -0 0.00414257 -0 0.00414257)
(0.00414259 -0.00192631 -0 0.00414259 -0 0.00414259)
(0.00414255 -0.00192628 -0 0.00414255 -0 0.00414255)
(0.0041002 -0.00190659 -0 0.0041002 -0 0.0041002)
(0.00410021 -0.0019066 -0 0.00410022 -0 0.00410021)
(0.00410024 -0.00190661 -0 0.00410024 -0 0.00410024)
(0.00410019 -0.00190659 -0 0.00410019 -0 0.00410019)
(0.00405704 -0.00188652 -0 0.00405704 -0 0.00405704)
(0.00405706 -0.00188653 -0 0.00405706 -0 0.00405706)
(0.00405709 -0.00188655 -0 0.00405709 -0 0.00405709)
(0.00405703 -0.00188652 -0 0.00405703 -0 0.00405703)
(0.0040131 -0.00186609 -0 0.0040131 -0 0.0040131)
(0.00401312 -0.0018661 -0 0.00401312 -0 0.00401312)
(0.00401315 -0.00186612 -0 0.00401315 -0 0.00401315)
(0.0040131 -0.00186609 -0 0.0040131 -0 0.0040131)
(0.00396844 -0.00184532 -0 0.00396843 -0 0.00396844)
(0.00396845 -0.00184533 -0 0.00396845 -0 0.00396845)
(0.00396849 -0.00184535 -0 0.00396849 -0 0.00396849)
(0.00396843 -0.00184532 -0 0.00396843 -0 0.00396843)
(0.00392312 -0.00182425 -0 0.00392311 -0 0.00392312)
(0.00392314 -0.00182426 -0 0.00392313 -0 0.00392313)
(0.00392317 -0.00182428 -0 0.00392318 -0 0.00392317)
(0.00392311 -0.00182425 -0 0.00392311 -0 0.00392311)
(0.00387725 -0.00180292 -0 0.00387724 -0 0.00387725)
(0.00387727 -0.00180293 -0 0.00387727 -0 0.00387727)
(0.0038773 -0.00180295 -0 0.00387731 -0 0.00387731)
(0.00387724 -0.00180292 -0 0.00387724 -0 0.00387724)
(0.00383097 -0.0017814 -0 0.00383096 -0 0.00383097)
(0.00383099 -0.00178141 -0 0.00383099 -0 0.00383099)
(0.00383102 -0.00178143 -0 0.00383103 -0 0.00383102)
(0.00383096 -0.00178139 -0 0.00383095 -0 0.00383096)
(0.00378443 -0.00175976 -0 0.00378443 -0 0.00378443)
(0.00378444 -0.00175977 -0 0.00378446 -0 0.00378445)
(0.00378448 -0.00175978 -0 0.00378448 -0 0.00378448)
(0.00378442 -0.00175975 -0 0.00378441 -0 0.00378442)
(0.00373779 -0.00173808 -0 0.0037378 -0 0.0037378)
(0.0037378 -0.00173808 -0 0.00373782 -0 0.00373781)
(0.00373785 -0.0017381 -0 0.00373784 -0 0.00373784)
(0.0037378 -0.00173807 -0 0.00373778 -0 0.00373779)
(0.00369119 -0.00171641 -0 0.00369122 -0 0.0036912)
(0.0036912 -0.00171641 -0 0.00369123 -0 0.00369122)
(0.00369126 -0.00171643 -0 0.00369123 -0 0.00369124)
(0.00369122 -0.00171641 -0 0.00369119 -0 0.0036912)
(0.00364468 -0.00169479 -0 0.00364473 -0 0.00364471)
(0.0036447 -0.00169479 -0 0.00364473 -0 0.00364472)
(0.00364477 -0.00169481 -0 0.00364472 -0 0.00364474)
(0.00364473 -0.00169479 -0 0.0036447 -0 0.00364472)
(0.00359821 -0.00167025 -0 0.00359827 -0 0.00359824)
(0.00359823 -0.00167019 -0 0.00359826 -0 0.00359825)
(0.0035983 -0.00167014 -0 0.00359824 -0 0.00359827)
(0.00359826 -0.00166971 -0 0.00359823 -0 0.00359825)
(0.00355169 -0.00164598 -0 0.00355173 -0 0.00355171)
(0.0035517 -0.00164588 -0 0.00355173 -0 0.00355171)
(0.00355176 -0.00164582 -0 0.00355171 -0 0.00355173)
(0.00355172 -0.00164554 -0 0.00355169 -0 0.00355171)
(0.00350509 -0.00162187 -0 0.00350512 -0 0.0035051)
(0.00350509 -0.00162175 -0 0.00350512 -0 0.00350511)
(0.00350514 -0.00162167 -0 0.00350511 -0 0.00350513)
(0.00350511 -0.00162135 -0 0.00350508 -0 0.00350509)
(0.00345842 -0.00159735 -0 0.00345844 -0 0.00345843)
(0.00345843 -0.00159722 -0 0.00345845 -0 0.00345844)
(0.00345847 -0.00159712 -0 0.00345845 -0 0.00345846)
(0.00345843 -0.00159676 -0 0.0034584 -0 0.00345842)
(0.0034117 -0.00157239 -0 0.00341172 -0 0.00341171)
(0.00341171 -0.0015723 -0 0.00341173 -0 0.00341172)
(0.00341174 -0.00157217 -0 0.00341173 -0 0.00341174)
(0.0034117 -0.00157179 -0 0.00341168 -0 0.00341169)
(0.00336494 -0.00154706 -0 0.00336495 -0 0.00336495)
(0.00336495 -0.00154696 -0 0.00336497 -0 0.00336496)
(0.00336498 -0.00154682 -0 0.00336497 -0 0.00336497)
(0.00336493 -0.00154642 -0 0.00336492 -0 0.00336493)
(0.00331815 -0.0015213 -0 0.00331815 -0 0.00331815)
(0.00331816 -0.00152122 -0 0.00331818 -0 0.00331817)
(0.00331818 -0.00152106 -0 0.00331818 -0 0.00331818)
(0.00331813 -0.00152065 -0 0.00331812 -0 0.00331813)
(0.00327134 -0.00149513 -0 0.00327133 -0 0.00327134)
(0.00327136 -0.00149507 -0 0.00327136 -0 0.00327136)
(0.00327136 -0.0014949 -0 0.00327137 -0 0.00327137)
(0.00327132 -0.00149449 -0 0.00327131 -0 0.00327131)
(0.00322452 -0.00146856 -0 0.00322451 -0 0.00322451)
(0.00322454 -0.00146851 -0 0.00322454 -0 0.00322454)
(0.00322454 -0.00146834 -0 0.00322455 -0 0.00322455)
(0.00322449 -0.00146793 -0 0.00322449 -0 0.00322449)
(0.00317771 -0.00144158 -0 0.00317769 -0 0.0031777)
(0.00317773 -0.00144154 -0 0.00317773 -0 0.00317773)
(0.00317773 -0.00144138 -0 0.00317774 -0 0.00317774)
(0.00317768 -0.00144097 -0 0.00317768 -0 0.00317768)
(0.00313092 -0.00141419 -0 0.00313091 -0 0.00313091)
(0.00313095 -0.00141416 -0 0.00313094 -0 0.00313095)
(0.00313094 -0.00141401 -0 0.00313096 -0 0.00313095)
(0.00313089 -0.0014136 -0 0.0031309 -0 0.00313089)
(0.00308418 -0.00138638 -0 0.00308417 -0 0.00308417)
(0.00308421 -0.00138637 -0 0.0030842 -0 0.00308421)
(0.0030842 -0.00138622 -0 0.00308422 -0 0.00308421)
(0.00308415 -0.00138583 -0 0.00308416 -0 0.00308416)
(0.00303751 -0.00135817 -0 0.00303749 -0 0.0030375)
(0.00303754 -0.00135816 -0 0.00303753 -0 0.00303753)
(0.00303753 -0.00135803 -0 0.00303755 -0 0.00303754)
(0.00303748 -0.00135764 -0 0.00303749 -0 0.00303749)
(0.00299093 -0.00132953 -0 0.00299091 -0 0.00299092)
(0.00299096 -0.00132953 -0 0.00299095 -0 0.00299096)
(0.00299095 -0.00132942 -0 0.00299097 -0 0.00299096)
(0.0029909 -0.00132904 -0 0.00299091 -0 0.00299091)
(0.00294447 -0.00130048 -0 0.00294446 -0 0.00294447)
(0.0029445 -0.00130049 -0 0.00294449 -0 0.0029445)
(0.00294449 -0.00130038 -0 0.00294451 -0 0.0029445)
(0.00294445 -0.00130002 -0 0.00294446 -0 0.00294445)
(0.00289817 -0.001271 -0 0.00289815 -0 0.00289816)
(0.0028982 -0.00127101 -0 0.00289818 -0 0.00289819)
(0.00289819 -0.00127092 -0 0.0028982 -0 0.00289819)
(0.00289814 -0.00127058 -0 0.00289815 -0 0.00289815)
(0.00285204 -0.0012411 -0 0.00285203 -0 0.00285204)
(0.00285207 -0.00124111 -0 0.00285206 -0 0.00285207)
(0.00285206 -0.00124103 -0 0.00285208 -0 0.00285207)
(0.00285202 -0.0012407 -0 0.00285203 -0 0.00285203)
(0.00280614 -0.00121076 -0 0.00280613 -0 0.00280613)
(0.00280617 -0.00121076 -0 0.00280615 -0 0.00280616)
(0.00280616 -0.00121071 -0 0.00280617 -0 0.00280617)
(0.00280612 -0.0012104 -0 0.00280613 -0 0.00280612)
(0.00276049 -0.00117998 -0 0.00276048 -0 0.00276049)
(0.00276052 -0.00117999 -0 0.0027605 -0 0.00276051)
(0.00276051 -0.00117995 -0 0.00276053 -0 0.00276052)
(0.00276047 -0.00117965 -0 0.00276049 -0 0.00276048)
(0.00271514 -0.00114876 -0 0.00271513 -0 0.00271514)
(0.00271517 -0.00114877 -0 0.00271515 -0 0.00271516)
(0.00271516 -0.00114874 -0 0.00271517 -0 0.00271517)
(0.00271512 -0.00114846 -0 0.00271514 -0 0.00271513)
(0.00267014 -0.0011171 -0 0.00267013 -0 0.00267013)
(0.00267016 -0.0011171 -0 0.00267014 -0 0.00267015)
(0.00267016 -0.00111707 -0 0.00267017 -0 0.00267016)
(0.00267012 -0.00111682 -0 0.00267013 -0 0.00267013)
(0.00262552 -0.00108497 -0 0.00262551 -0 0.00262551)
(0.00262554 -0.00108498 -0 0.00262552 -0 0.00262553)
(0.00262554 -0.00108496 -0 0.00262554 -0 0.00262554)
(0.0026255 -0.00108473 -0 0.00262551 -0 0.00262551)
(0.00258134 -0.00105239 -0 0.00258133 -0 0.00258133)
(0.00258136 -0.00105241 -0 0.00258134 -0 0.00258135)
(0.00258135 -0.00105238 -0 0.00258136 -0 0.00258136)
(0.00258132 -0.00105218 -0 0.00258133 -0 0.00258133)
(0.00253765 -0.00101934 -0 0.00253764 -0 0.00253765)
(0.00253767 -0.00101936 -0 0.00253766 -0 0.00253766)
(0.00253766 -0.00101934 -0 0.00253767 -0 0.00253767)
(0.00253763 -0.00101916 -0 0.00253765 -0 0.00253764)
(0.00249451 -0.000985827 -0 0.0024945 -0 0.00249451)
(0.00249453 -0.000985845 -0 0.00249452 -0 0.00249452)
(0.00249452 -0.000985827 -0 0.00249453 -0 0.00249453)
(0.0024945 -0.000985668 -0 0.00249451 -0 0.0024945)
(0.00245198 -0.000951835 -0 0.00245198 -0 0.00245198)
(0.002452 -0.000951853 -0 0.00245199 -0 0.00245199)
(0.00245199 -0.000951839 -0 0.002452 -0 0.002452)
(0.00245197 -0.000951701 -0 0.00245198 -0 0.00245197)
(0.00241013 -0.000917361 -0 0.00241012 -0 0.00241013)
(0.00241014 -0.00091738 -0 0.00241013 -0 0.00241014)
(0.00241014 -0.00091737 -0 0.00241014 -0 0.00241014)
(0.00241012 -0.00091725 -0 0.00241013 -0 0.00241012)
(0.00236902 -0.000882399 -0 0.00236901 -0 0.00236902)
(0.00236903 -0.000882418 -0 0.00236902 -0 0.00236903)
(0.00236903 -0.000882412 -0 0.00236903 -0 0.00236903)
(0.00236901 -0.00088231 -0 0.00236902 -0 0.00236901)
(0.00232872 -0.000846944 -0 0.00232872 -0 0.00232872)
(0.00232874 -0.000846963 -0 0.00232873 -0 0.00232873)
(0.00232873 -0.000846961 -0 0.00232874 -0 0.00232873)
(0.00232871 -0.000846876 -0 0.00232872 -0 0.00232872)
(0.00228932 -0.000810989 -0 0.00228932 -0 0.00228932)
(0.00228933 -0.000811008 -0 0.00228933 -0 0.00228933)
(0.00228933 -0.00081101 -0 0.00228933 -0 0.00228933)
(0.00228931 -0.00081094 -0 0.00228932 -0 0.00228932)
(0.0022509 -0.000774528 -0 0.00225089 -0 0.0022509)
(0.0022509 -0.000774548 -0 0.0022509 -0 0.0022509)
(0.0022509 -0.000774551 -0 0.0022509 -0 0.0022509)
(0.00225089 -0.000774497 -0 0.00225089 -0 0.00225089)
(0.00221353 -0.000737555 -0 0.00221353 -0 0.00221353)
(0.00221353 -0.000737575 -0 0.00221353 -0 0.00221353)
(0.00221353 -0.00073758 -0 0.00221353 -0 0.00221353)
(0.00221352 -0.000737539 -0 0.00221352 -0 0.00221352)
(0.00217731 -0.000700063 -0 0.00217731 -0 0.00217731)
(0.00217731 -0.000700082 -0 0.00217731 -0 0.00217731)
(0.00217731 -0.000700089 -0 0.00217731 -0 0.00217731)
(0.0021773 -0.00070006 -0 0.0021773 -0 0.0021773)
(0.00214233 -0.000662047 -0 0.00214233 -0 0.00214233)
(0.00214233 -0.000662062 -0 0.00214233 -0 0.00214233)
(0.00214233 -0.000662075 -0 0.00214233 -0 0.00214233)
(0.00214232 -0.000662053 -0 0.00214232 -0 0.00214232)
(0.00210869 -0.000623496 -0 0.00210869 -0 0.00210869)
(0.00210869 -0.000623511 -0 0.00210869 -0 0.00210869)
(0.00210869 -0.000623524 -0 0.00210869 -0 0.00210869)
(0.00210868 -0.000623512 -0 0.00210868 -0 0.00210868)
(0.00207648 -0.000584406 -0 0.00207648 -0 0.00207648)
(0.00207648 -0.000584416 -0 0.00207648 -0 0.00207648)
(0.00207648 -0.000584435 -0 0.00207648 -0 0.00207648)
(0.00207648 -0.000584429 -0 0.00207648 -0 0.00207648)
(0.00204582 -0.000544769 -0 0.00204582 -0 0.00204582)
(0.00204582 -0.000544778 -0 0.00204582 -0 0.00204582)
(0.00204582 -0.000544796 -0 0.00204582 -0 0.00204582)
(0.00204582 -0.000544796 -0 0.00204582 -0 0.00204582)
(0.00201681 -0.000504577 -0 0.00201681 -0 0.00201681)
(0.00201681 -0.000504583 -0 0.00201681 -0 0.00201681)
(0.00201681 -0.000504602 -0 0.00201681 -0 0.00201681)
(0.00201681 -0.000504607 -0 0.0020168 -0 0.0020168)
(0.00198955 -0.000463821 -0 0.00198956 -0 0.00198955)
(0.00198955 -0.000463826 -0 0.00198955 -0 0.00198955)
(0.00198956 -0.000463844 -0 0.00198955 -0 0.00198955)
(0.00198955 -0.000463853 -0 0.00198955 -0 0.00198955)
(0.00196417 -0.000422494 -0 0.00196417 -0 0.00196417)
(0.00196417 -0.000422502 -0 0.00196417 -0 0.00196417)
(0.00196417 -0.000422514 -0 0.00196417 -0 0.00196417)
(0.00196417 -0.000422527 -0 0.00196417 -0 0.00196417)
(0.00194077 -0.000380587 -0 0.00194078 -0 0.00194078)
(0.00194077 -0.000380593 -0 0.00194078 -0 0.00194078)
(0.00194078 -0.000380605 -0 0.00194077 -0 0.00194077)
(0.00194077 -0.000380619 -0 0.00194077 -0 0.00194077)
(0.00191948 -0.000338091 -0 0.00191948 -0 0.00191948)
(0.00191948 -0.000338094 -0 0.00191948 -0 0.00191948)
(0.00191948 -0.000338107 -0 0.00191948 -0 0.00191948)
(0.00191948 -0.000338121 -0 0.00191948 -0 0.00191948)
(0.00190041 -0.000294998 -0 0.00190042 -0 0.00190041)
(0.00190041 -0.000295 -0 0.00190042 -0 0.00190041)
(0.00190041 -0.00029501 -0 0.00190041 -0 0.00190041)
(0.00190041 -0.000295024 -0 0.00190041 -0 0.00190041)
(0.00188369 -0.000251294 -0 0.00188369 -0 0.00188369)
(0.00188369 -0.0002513 -0 0.00188369 -0 0.00188369)
(0.00188369 -0.000251304 -0 0.00188369 -0 0.00188369)
(0.00188369 -0.000251319 -0 0.00188368 -0 0.00188369)
(0.00186943 -0.000206976 -0 0.00186944 -0 0.00186943)
(0.00186943 -0.000206979 -0 0.00186944 -0 0.00186943)
(0.00186943 -0.000206983 -0 0.00186943 -0 0.00186943)
(0.00186943 -0.000206995 -0 0.00186943 -0 0.00186943)
(0.00185777 -0.000162029 -0 0.00185777 -0 0.00185777)
(0.00185777 -0.000162031 -0 0.00185778 -0 0.00185777)
(0.00185777 -0.000162033 -0 0.00185777 -0 0.00185777)
(0.00185777 -0.000162044 -0 0.00185777 -0 0.00185777)
(0.00184883 -0.000116443 -0 0.00184883 -0 0.00184883)
(0.00184883 -0.000116445 -0 0.00184883 -0 0.00184883)
(0.00184883 -0.000116446 -0 0.00184883 -0 0.00184883)
(0.00184883 -0.000116453 -0 0.00184882 -0 0.00184883)
(0.00184274 -7.02083e-05 -0 0.00184274 -0 0.00184274)
(0.00184274 -7.02086e-05 -0 0.00184274 -0 0.00184274)
(0.00184274 -7.02101e-05 -0 0.00184274 -0 0.00184274)
(0.00184274 -7.02139e-05 -0 0.00184273 -0 0.00184273)
(0.00183962 -2.34637e-05 -0 0.00183963 -0 0.00183962)
(0.00183962 -2.3464e-05 -0 0.00183963 -0 0.00183962)
(0.00183962 -2.34643e-05 -0 0.00183962 -0 0.00183962)
(0.00183962 -2.34656e-05 -0 0.00183962 -0 0.00183962)
)
;

boundaryField
{
    inlet
    {
        type            cyclic;
    }
    outlet
    {
        type            cyclic;
    }
    fixedWalls-bottom
    {
        type            kqRWallFunction;
        value           nonuniform List<symmTensor> 4((8.24484e-06 -0 -0 8.24484e-06 -0 8.24484e-06) (8.24521e-06 -0 -0 8.24521e-06 -0 8.24521e-06) (8.24486e-06 -0 -0 8.24486e-06 -0 8.24486e-06) (8.24474e-06 -0 -0 8.24474e-06 -0 8.24474e-06));
    }
    fixedWalls-top
    {
        type            symmetry;
    }
    frontAndBack
    {
        type            empty;
    }
}


// ************************************************************************* //
