/*--------------------------------*- C++ -*----------------------------------*\
  =========                 |
  \\      /  F ield         | OpenFOAM: The Open Source CFD Toolbox
   \\    /   O peration     | Website:  https://openfoam.org
    \\  /    A nd           | Version:  10
     \\/     M anipulation  |
\*---------------------------------------------------------------------------*/
FoamFile
{
    format      ascii;
    class       volVectorField;
    location    "5000";
    object      U;
}
// * * * * * * * * * * * * * * * * * * * * * * * * * * * * * * * * * * * * * //

dimensions      [0 1 -1 0 0 0 0];

internalField   nonuniform List<vector> 
400
(
(0.0770466 -5.84401e-10 0)
(0.0770472 -2.46682e-10 0)
(0.0770467 5.1165e-10 0)
(0.0770462 2.48281e-10 0)
(0.229865 -1.01143e-08 0)
(0.229867 -1.00237e-09 0)
(0.229865 9.98624e-09 0)
(0.229864 1.00393e-09 0)
(0.365143 -2.78636e-08 0)
(0.365144 5.68673e-10 0)
(0.365142 2.77384e-08 0)
(0.36514 -5.63738e-10 0)
(0.463422 -4.76279e-08 0)
(0.463423 3.72761e-09 0)
(0.46342 4.75133e-08 0)
(0.463419 -3.72027e-09 0)
(0.532199 -6.5092e-08 0)
(0.5322 8.90882e-09 0)
(0.532198 6.49805e-08 0)
(0.532196 -8.9002e-09 0)
(0.583029 -7.87e-08 0)
(0.583029 1.44012e-08 0)
(0.583027 7.859e-08 0)
(0.583027 -1.43916e-08 0)
(0.622401 -8.79053e-08 0)
(0.622401 2.0282e-08 0)
(0.622399 8.7797e-08 0)
(0.622399 -2.02717e-08 0)
(0.654137 -9.25965e-08 0)
(0.654137 2.75843e-08 0)
(0.654136 9.24897e-08 0)
(0.654136 -2.75732e-08 0)
(0.680572 -9.28899e-08 0)
(0.680571 3.65077e-08 0)
(0.680571 9.27845e-08 0)
(0.680572 -3.64961e-08 0)
(0.703211 -8.97658e-08 0)
(0.70321 4.45731e-08 0)
(0.703209 8.96618e-08 0)
(0.703211 -4.4561e-08 0)
(0.723038 -8.36162e-08 0)
(0.723037 5.20038e-08 0)
(0.723037 8.35133e-08 0)
(0.723038 -5.19912e-08 0)
(0.74069 -7.58729e-08 0)
(0.740689 5.69469e-08 0)
(0.740689 7.57713e-08 0)
(0.740691 -5.69338e-08 0)
(0.756605 -6.70999e-08 0)
(0.756604 6.05577e-08 0)
(0.756604 6.69994e-08 0)
(0.756606 -6.05442e-08 0)
(0.771101 -5.79115e-08 0)
(0.7711 6.35111e-08 0)
(0.7711 5.78121e-08 0)
(0.771102 -6.34972e-08 0)
(0.784419 -4.87329e-08 0)
(0.784418 6.59771e-08 0)
(0.784418 4.86346e-08 0)
(0.78442 -6.59628e-08 0)
(0.796744 -3.99064e-08 0)
(0.796743 6.8127e-08 0)
(0.796743 3.98093e-08 0)
(0.796744 -6.81124e-08 0)
(0.80822 -3.17185e-08 0)
(0.80822 7.00161e-08 0)
(0.80822 3.16224e-08 0)
(0.808221 -7.00011e-08 0)
(0.818964 -2.43936e-08 0)
(0.818963 7.15854e-08 0)
(0.818964 2.42986e-08 0)
(0.818965 -7.15701e-08 0)
(0.829068 -1.8072e-08 0)
(0.829068 7.27542e-08 0)
(0.829068 1.7978e-08 0)
(0.829069 -7.27385e-08 0)
(0.838609 -1.28366e-08 0)
(0.838608 7.34154e-08 0)
(0.838609 1.27437e-08 0)
(0.838609 -7.33994e-08 0)
(0.84765 -8.7061e-09 0)
(0.847649 7.35121e-08 0)
(0.84765 8.61419e-09 0)
(0.84765 -7.34958e-08 0)
(0.856243 -5.66153e-09 0)
(0.856243 7.3e-08 0)
(0.856243 5.57064e-09 0)
(0.856243 -7.29834e-08 0)
(0.864434 -3.65423e-09 0)
(0.864434 7.18519e-08 0)
(0.864434 3.56434e-09 0)
(0.864434 -7.1835e-08 0)
(0.872261 -2.60811e-09 0)
(0.872261 7.00632e-08 0)
(0.872261 2.51922e-09 0)
(0.872261 -7.0046e-08 0)
(0.879756 -2.42461e-09 0)
(0.879756 6.76592e-08 0)
(0.879756 2.33671e-09 0)
(0.879756 -6.76418e-08 0)
(0.886946 -2.98942e-09 0)
(0.886947 6.47198e-08 0)
(0.886947 2.90251e-09 0)
(0.886946 -6.47021e-08 0)
(0.893858 -4.15755e-09 0)
(0.893858 6.14205e-08 0)
(0.893859 4.07162e-09 0)
(0.893858 -6.14025e-08 0)
(0.900512 -5.75963e-09 0)
(0.900512 5.80274e-08 0)
(0.900512 5.67467e-09 0)
(0.900512 -5.80092e-08 0)
(0.906926 -7.59207e-09 0)
(0.906926 5.48293e-08 0)
(0.906927 7.50809e-09 0)
(0.906926 -5.48109e-08 0)
(0.913118 -9.37229e-09 0)
(0.913118 5.21177e-08 0)
(0.913118 9.28927e-09 0)
(0.913118 -5.20991e-08 0)
(0.919102 -1.07095e-08 0)
(0.919102 5.00352e-08 0)
(0.919102 1.06275e-08 0)
(0.919102 -5.00164e-08 0)
(0.924892 -1.13695e-08 0)
(0.924892 4.83806e-08 0)
(0.924892 1.12884e-08 0)
(0.924892 -4.83615e-08 0)
(0.930503 -1.1188e-08 0)
(0.930503 4.70547e-08 0)
(0.930504 1.11078e-08 0)
(0.930503 -4.70355e-08 0)
(0.935953 -1.02744e-08 0)
(0.935953 4.57907e-08 0)
(0.935953 1.01952e-08 0)
(0.935953 -4.57713e-08 0)
(0.941253 -8.84602e-09 0)
(0.941253 4.45725e-08 0)
(0.941253 8.76779e-09 0)
(0.941253 -4.45529e-08 0)
(0.946413 -7.11676e-09 0)
(0.946413 4.34346e-08 0)
(0.946413 7.03949e-09 0)
(0.946413 -4.34148e-08 0)
(0.95144 -5.26498e-09 0)
(0.95144 4.23734e-08 0)
(0.95144 5.18868e-09 0)
(0.95144 -4.23535e-08 0)
(0.956343 -3.43335e-09 0)
(0.956343 4.13569e-08 0)
(0.956343 3.35801e-09 0)
(0.956343 -4.13368e-08 0)
(0.961126 -1.73699e-09 0)
(0.961126 4.03714e-08 0)
(0.961126 1.66261e-09 0)
(0.961126 -4.03513e-08 0)
(0.965795 -2.59961e-10 0)
(0.965795 3.94723e-08 0)
(0.965795 1.86548e-10 0)
(0.965795 -3.9452e-08 0)
(0.970354 9.73149e-10 0)
(0.970354 3.88131e-08 0)
(0.970354 -1.04559e-09 0)
(0.970354 -3.87927e-08 0)
(0.974807 2.05153e-09 0)
(0.974806 3.86306e-08 0)
(0.974807 -2.123e-09 0)
(0.974807 -3.86101e-08 0)
(0.979155 3.235e-09 0)
(0.979154 3.91593e-08 0)
(0.979155 -3.30551e-09 0)
(0.979155 -3.91387e-08 0)
(0.983399 4.95836e-09 0)
(0.983399 4.04653e-08 0)
(0.983399 -5.02791e-09 0)
(0.983399 -4.04447e-08 0)
(0.98754 7.70478e-09 0)
(0.98754 4.22281e-08 0)
(0.98754 -7.77334e-09 0)
(0.98754 -4.22074e-08 0)
(0.991575 1.1677e-08 0)
(0.991575 4.35565e-08 0)
(0.991575 -1.17446e-08 0)
(0.991575 -4.35358e-08 0)
(0.995501 1.62568e-08 0)
(0.995501 4.30006e-08 0)
(0.995502 -1.63235e-08 0)
(0.995502 -4.298e-08 0)
(0.999317 1.93859e-08 0)
(0.999317 3.89317e-08 0)
(0.999317 -1.94516e-08 0)
(0.999317 -3.89108e-08 0)
(1.00302 1.72984e-08 0)
(1.00302 3.03373e-08 0)
(1.00302 -1.73632e-08 0)
(1.00302 -3.03159e-08 0)
(1.00661 5.64846e-09 0)
(1.00661 1.76513e-08 0)
(1.00661 -5.71186e-09 0)
(1.00661 -1.76299e-08 0)
(1.01009 -1.66079e-08 0)
(1.01009 2.6393e-09 0)
(1.01009 1.65452e-08 0)
(1.01009 -2.6197e-09 0)
(1.01348 -4.19899e-08 0)
(1.01348 -1.34594e-08 0)
(1.01348 4.19278e-08 0)
(1.01348 1.34795e-08 0)
(1.01679 -6.7755e-08 0)
(1.01679 -2.88134e-08 0)
(1.01679 6.76942e-08 0)
(1.01679 2.8835e-08 0)
(1.02002 -8.59044e-08 0)
(1.02002 -4.34401e-08 0)
(1.02002 8.58445e-08 0)
(1.02002 4.34611e-08 0)
(1.02318 -9.80117e-08 0)
(1.02318 -5.68567e-08 0)
(1.02318 9.79528e-08 0)
(1.02318 5.68775e-08 0)
(1.02627 -1.05545e-07 0)
(1.02627 -6.82666e-08 0)
(1.02627 1.05487e-07 0)
(1.02627 6.82873e-08 0)
(1.02929 -1.09388e-07 0)
(1.02929 -7.72932e-08 0)
(1.02929 1.09331e-07 0)
(1.02929 7.73139e-08 0)
(1.03224 -1.10002e-07 0)
(1.03224 -8.34918e-08 0)
(1.03224 1.09946e-07 0)
(1.03224 8.35124e-08 0)
(1.03513 -1.07855e-07 0)
(1.03513 -8.71243e-08 0)
(1.03513 1.07799e-07 0)
(1.03513 8.71448e-08 0)
(1.03795 -1.03463e-07 0)
(1.03795 -8.86098e-08 0)
(1.03795 1.03409e-07 0)
(1.03796 8.86302e-08 0)
(1.04072 -9.72644e-08 0)
(1.04072 -8.83619e-08 0)
(1.04072 9.72112e-08 0)
(1.04072 8.83822e-08 0)
(1.04343 -8.98367e-08 0)
(1.04343 -8.67119e-08 0)
(1.04343 8.97846e-08 0)
(1.04343 8.67321e-08 0)
(1.04608 -8.16598e-08 0)
(1.04608 -8.38651e-08 0)
(1.04608 8.16087e-08 0)
(1.04608 8.38851e-08 0)
(1.04867 -7.31305e-08 0)
(1.04867 -7.99808e-08 0)
(1.04867 7.30804e-08 0)
(1.04867 8.00007e-08 0)
(1.05121 -6.45605e-08 0)
(1.05121 -7.52026e-08 0)
(1.05121 6.45114e-08 0)
(1.05121 7.52223e-08 0)
(1.05369 -5.61628e-08 0)
(1.05369 -6.96675e-08 0)
(1.05369 5.61147e-08 0)
(1.05369 6.96871e-08 0)
(1.05612 -4.80572e-08 0)
(1.05612 -6.35124e-08 0)
(1.05612 4.80102e-08 0)
(1.05612 6.35318e-08 0)
(1.0585 -4.03463e-08 0)
(1.0585 -5.68931e-08 0)
(1.0585 4.03005e-08 0)
(1.0585 5.69123e-08 0)
(1.06082 -3.32847e-08 0)
(1.06082 -5.00656e-08 0)
(1.06082 3.324e-08 0)
(1.06082 5.00845e-08 0)
(1.06309 -2.6924e-08 0)
(1.06309 -4.32404e-08 0)
(1.06309 2.68803e-08 0)
(1.06309 4.32591e-08 0)
(1.06531 -2.14357e-08 0)
(1.06531 -3.66616e-08 0)
(1.06531 2.13931e-08 0)
(1.06531 3.668e-08 0)
(1.06747 -1.67136e-08 0)
(1.06747 -3.03908e-08 0)
(1.06747 1.66721e-08 0)
(1.06747 3.0409e-08 0)
(1.06958 -1.26057e-08 0)
(1.06958 -2.43052e-08 0)
(1.06958 1.25654e-08 0)
(1.06958 2.43231e-08 0)
(1.07163 -8.91787e-09 0)
(1.07163 -1.84346e-08 0)
(1.07163 8.87876e-09 0)
(1.07163 1.84522e-08 0)
(1.07364 -5.53779e-09 0)
(1.07364 -1.26983e-08 0)
(1.07364 5.49986e-09 0)
(1.07364 1.27156e-08 0)
(1.07558 -2.33105e-09 0)
(1.07558 -7.23626e-09 0)
(1.07558 2.29431e-09 0)
(1.07558 7.25325e-09 0)
(1.07747 6.92873e-10 0)
(1.07747 -2.13773e-09 0)
(1.07747 -7.28398e-10 0)
(1.07747 2.15438e-09 0)
(1.07931 3.51659e-09 0)
(1.07931 2.5612e-09 0)
(1.07931 -3.55087e-09 0)
(1.07931 -2.54491e-09 0)
(1.08109 6.11264e-09 0)
(1.08109 6.8426e-09 0)
(1.08109 -6.14568e-09 0)
(1.08109 -6.82668e-09 0)
(1.08281 8.4389e-09 0)
(1.08281 1.06966e-08 0)
(1.08281 -8.47067e-09 0)
(1.08281 -1.0681e-08 0)
(1.08447 1.0448e-08 0)
(1.08447 1.4121e-08 0)
(1.08447 -1.04785e-08 0)
(1.08447 -1.41058e-08 0)
(1.08607 1.21288e-08 0)
(1.08607 1.71265e-08 0)
(1.08607 -1.21579e-08 0)
(1.08607 -1.71118e-08 0)
(1.0876 1.34775e-08 0)
(1.0876 1.97115e-08 0)
(1.0876 -1.35054e-08 0)
(1.0876 -1.96972e-08 0)
(1.08907 1.45246e-08 0)
(1.08907 2.18419e-08 0)
(1.08907 -1.4551e-08 0)
(1.08907 -2.1828e-08 0)
(1.09048 1.53077e-08 0)
(1.09048 2.35195e-08 0)
(1.09048 -1.53327e-08 0)
(1.09048 -2.35062e-08 0)
(1.09182 1.58221e-08 0)
(1.09182 2.47049e-08 0)
(1.09182 -1.58458e-08 0)
(1.09182 -2.46921e-08 0)
(1.09309 1.59932e-08 0)
(1.09309 2.54281e-08 0)
(1.09309 -1.60154e-08 0)
(1.09309 -2.54158e-08 0)
(1.09428 1.57862e-08 0)
(1.09428 2.56635e-08 0)
(1.09428 -1.58069e-08 0)
(1.09428 -2.56518e-08 0)
(1.09541 1.51259e-08 0)
(1.09541 2.54049e-08 0)
(1.09541 -1.51451e-08 0)
(1.09541 -2.53937e-08 0)
(1.09645 1.40901e-08 0)
(1.09645 2.4657e-08 0)
(1.09645 -1.41077e-08 0)
(1.09645 -2.46465e-08 0)
(1.09742 1.28616e-08 0)
(1.09742 2.34412e-08 0)
(1.09742 -1.28777e-08 0)
(1.09742 -2.34314e-08 0)
(1.0983 1.15233e-08 0)
(1.0983 2.18365e-08 0)
(1.0983 -1.15377e-08 0)
(1.0983 -2.18275e-08 0)
(1.0991 1.01224e-08 0)
(1.0991 1.99095e-08 0)
(1.0991 -1.01351e-08 0)
(1.0991 -1.99013e-08 0)
(1.09981 8.65971e-09 0)
(1.09981 1.76982e-08 0)
(1.09981 -8.6708e-09 0)
(1.09981 -1.76909e-08 0)
(1.10044 7.15601e-09 0)
(1.10044 1.52785e-08 0)
(1.10044 -7.16537e-09 0)
(1.10044 -1.5272e-08 0)
(1.10096 5.67846e-09 0)
(1.10096 1.2684e-08 0)
(1.10096 -5.68606e-09 0)
(1.10096 -1.26785e-08 0)
(1.10139 4.32311e-09 0)
(1.10139 9.9753e-09 0)
(1.10139 -4.3289e-09 0)
(1.10139 -9.97096e-09 0)
(1.10172 3.06628e-09 0)
(1.10172 7.18717e-09 0)
(1.10172 -3.07017e-09 0)
(1.10172 -7.18398e-09 0)
(1.10194 1.8511e-09 0)
(1.10194 4.34084e-09 0)
(1.10194 -1.85315e-09 0)
(1.10194 -4.33894e-09 0)
(1.10206 6.34585e-10 0)
(1.10206 1.44335e-09 0)
(1.10206 -6.35155e-10 0)
(1.10206 -1.44272e-09 0)
)
;

boundaryField
{
    inlet
    {
        type            cyclic;
    }
    outlet
    {
        type            cyclic;
    }
    fixedWalls-bottom
    {
        type            noSlip;
    }
    fixedWalls-top
    {
        type            symmetry;
    }
    frontAndBack
    {
        type            empty;
    }
}


// ************************************************************************* //
