/*--------------------------------*- C++ -*----------------------------------*\
  =========                 |
  \\      /  F ield         | OpenFOAM: The Open Source CFD Toolbox
   \\    /   O peration     | Website:  https://openfoam.org
    \\  /    A nd           | Version:  10
     \\/     M anipulation  |
\*---------------------------------------------------------------------------*/
FoamFile
{
    format      ascii;
    class       volScalarField;
    location    "2500";
    object      k;
}
// * * * * * * * * * * * * * * * * * * * * * * * * * * * * * * * * * * * * * //

dimensions      [0 2 -2 0 0 0 0];

internalField   nonuniform List<scalar> 
400
(
2.35462e-08
2.35802e-08
2.35819e-08
2.3576e-08
7.06453e-07
7.07473e-07
7.07524e-07
7.07346e-07
5.00263e-06
5.00985e-06
5.01021e-06
5.00895e-06
1.818e-05
1.82063e-05
1.82076e-05
1.8203e-05
4.6984e-05
4.70522e-05
4.70554e-05
4.70435e-05
9.9227e-05
9.93718e-05
9.93777e-05
9.93525e-05
0.000183406
0.000183675
0.000183684
0.000183637
0.000308094
0.000308544
0.000308554
0.000308475
0.000480994
0.000481688
0.000481692
0.00048157
0.000707717
0.000708709
0.000708694
0.000708515
0.00099054
0.000991855
0.000991805
0.000991551
0.00132752
0.00132915
0.00132903
0.00132868
0.00171231
0.00171419
0.00171396
0.00171351
0.0021348
0.00213683
0.00213643
0.00213587
0.00258239
0.00258446
0.00258385
0.00258316
0.00304158
0.00304359
0.00304274
0.00304192
0.0034995
0.00350139
0.00350029
0.00349937
0.00394507
0.00394683
0.00394549
0.00394449
0.00436963
0.00437125
0.00436974
0.00436868
0.00476761
0.00476909
0.00476746
0.00476639
0.00513732
0.00513865
0.00513689
0.00513584
0.00547736
0.00547854
0.0054767
0.00547572
0.00578681
0.00578785
0.00578596
0.0057851
0.00606555
0.00606645
0.00606456
0.00606385
0.00631416
0.00631492
0.00631305
0.00631254
0.00653375
0.00653436
0.00653252
0.00653224
0.00672579
0.00672624
0.00672444
0.00672441
0.00689198
0.00689227
0.00689051
0.00689073
0.00703416
0.00703427
0.00703256
0.00703305
0.00715418
0.00715415
0.00715247
0.00715325
0.00725389
0.00725375
0.00725208
0.00725316
0.0073351
0.00733486
0.00733318
0.00733459
0.00739953
0.00739921
0.00739747
0.00739923
0.00744877
0.00744834
0.00744653
0.00744864
0.00748422
0.00748367
0.00748176
0.00748423
0.0075072
0.00750649
0.00750447
0.00750733
0.00751887
0.00751798
0.00751584
0.00751909
0.00752029
0.00751919
0.00751694
0.00752061
0.00751242
0.00751109
0.00750878
0.00751284
0.00749613
0.00749456
0.00749224
0.00749667
0.00747222
0.00747043
0.00746812
0.00747288
0.00744143
0.00743945
0.00743716
0.00744219
0.00740433
0.00740217
0.00739994
0.00740522
0.00736137
0.00735903
0.00735684
0.00736244
0.00731296
0.00731045
0.00730829
0.00731421
0.00725945
0.00725679
0.00725462
0.0072609
0.00720119
0.00719839
0.00719617
0.00720283
0.00713849
0.00713557
0.00713324
0.00714028
0.00707164
0.00706857
0.00706615
0.00707355
0.00700088
0.00699761
0.00699512
0.00700286
0.00692638
0.00692295
0.00692036
0.00692842
0.00684829
0.00684475
0.006842
0.00685038
0.00676673
0.0067631
0.00676023
0.00676888
0.00668185
0.0066781
0.00667516
0.00668402
0.00659373
0.00658977
0.00658686
0.00659583
0.00650225
0.0064981
0.0064953
0.00650429
0.00640742
0.00640314
0.00640042
0.00640943
0.00630934
0.00630505
0.00630231
0.00631133
0.0062081
0.00620378
0.00620107
0.00621008
0.00610381
0.00609933
0.00609677
0.00610576
0.00599649
0.00599192
0.0059894
0.00599843
0.00588618
0.0058815
0.00587911
0.00588812
0.00577291
0.00576812
0.00576605
0.00577486
0.00565677
0.00565189
0.00565012
0.00565874
0.00553779
0.00553287
0.00553126
0.00553981
0.00541604
0.00541109
0.00540944
0.00541812
0.0052915
0.00528658
0.00528465
0.00529369
0.00516411
0.00515947
0.00515701
0.00516652
0.00503413
0.0050295
0.00502685
0.0050366
0.00490127
0.00489706
0.004894
0.00490404
0.00476576
0.00476192
0.00475866
0.00476881
0.00462779
0.00462401
0.00462087
0.00463094
0.0044876
0.00448319
0.0044806
0.00449045
0.00434487
0.00433984
0.00433794
0.00434734
0.00419949
0.00419414
0.00419282
0.00420171
0.00405155
0.00404612
0.00404516
0.00405363
0.00390116
0.00389582
0.00389507
0.00390311
0.00374838
0.00374335
0.00374275
0.00375013
0.00359331
0.00358909
0.00358816
0.00359482
0.00343595
0.00343283
0.0034314
0.00343738
0.00327642
0.00327434
0.00327262
0.00327791
0.00311488
0.00311365
0.00311179
0.00311655
0.00295156
0.00295089
0.00294909
0.00295347
0.00278673
0.00278636
0.00278475
0.00278883
0.00262066
0.00262043
0.00261903
0.0026229
0.00245364
0.00245349
0.00245227
0.00245601
0.00228596
0.002286
0.00228483
0.00228859
0.00211792
0.00211859
0.00211673
0.00212132
0.00195079
0.00195188
0.00194949
0.00195474
0.00178578
0.00178679
0.00178444
0.00178967
0.00162435
0.00162421
0.00162255
0.00162723
0.00146698
0.00146637
0.0014653
0.00146884
0.00131499
0.00131438
0.00131392
0.00131639
0.00117079
0.00117009
0.00117013
0.00117199
0.00103712
0.00103639
0.00103659
0.00103815
0.000917128
0.000916385
0.000916574
0.000917891
0.000814343
0.000813583
0.000813673
0.000814798
0.000732469
0.000731627
0.000731651
0.00073273
0.00067512
0.00067386
0.000674162
0.000675436
0.000645511
0.000643955
0.000644387
0.000645907
)
;

boundaryField
{
    inlet
    {
        type            cyclic;
    }
    outlet
    {
        type            cyclic;
    }
    fixedWalls-bottom
    {
        type            kqRWallFunction;
        value           nonuniform List<scalar> 4(2.35462e-08 2.35802e-08 2.35819e-08 2.3576e-08);
    }
    fixedWalls-top
    {
        type            symmetry;
    }
    frontAndBack
    {
        type            empty;
    }
}


// ************************************************************************* //
