/*--------------------------------*- C++ -*----------------------------------*\
  =========                 |
  \\      /  F ield         | OpenFOAM: The Open Source CFD Toolbox
   \\    /   O peration     | Website:  https://openfoam.org
    \\  /    A nd           | Version:  10
     \\/     M anipulation  |
\*---------------------------------------------------------------------------*/
FoamFile
{
    format      ascii;
    class       volSymmTensorField;
    location    "2500";
    object      R;
}
// * * * * * * * * * * * * * * * * * * * * * * * * * * * * * * * * * * * * * //

dimensions      [0 2 -2 0 0 0 0];

internalField   nonuniform List<symmTensor> 
400
(
(1.56975e-08 -1.46468e-11 -0 1.56975e-08 -0 1.56975e-08)
(1.57201e-08 -1.46699e-11 -0 1.57201e-08 -0 1.57201e-08)
(1.57213e-08 -1.4671e-11 -0 1.57213e-08 -0 1.57213e-08)
(1.57173e-08 -1.46658e-11 -0 1.57173e-08 -0 1.57173e-08)
(4.70969e-07 -2.55713e-09 -0 4.70969e-07 -0 4.70969e-07)
(4.71649e-07 -2.56114e-09 -0 4.71649e-07 -0 4.71649e-07)
(4.71683e-07 -2.56134e-09 -0 4.71683e-07 -0 4.71683e-07)
(4.71564e-07 -2.56045e-09 -0 4.71564e-07 -0 4.71564e-07)
(3.33508e-06 -5.35534e-08 -0 3.33509e-06 -0 3.33509e-06)
(3.3399e-06 -5.36372e-08 -0 3.3399e-06 -0 3.3399e-06)
(3.34014e-06 -5.36416e-08 -0 3.34014e-06 -0 3.34014e-06)
(3.3393e-06 -5.36234e-08 -0 3.3393e-06 -0 3.3393e-06)
(1.212e-05 -4.11471e-07 -0 1.212e-05 -0 1.212e-05)
(1.21375e-05 -4.12114e-07 -0 1.21376e-05 -0 1.21376e-05)
(1.21384e-05 -4.12148e-07 -0 1.21384e-05 -0 1.21384e-05)
(1.21353e-05 -4.12012e-07 -0 1.21353e-05 -0 1.21353e-05)
(3.13226e-05 -1.86006e-06 -0 3.13227e-05 -0 3.13227e-05)
(3.13681e-05 -1.86299e-06 -0 3.13682e-05 -0 3.13682e-05)
(3.13702e-05 -1.86315e-06 -0 3.13702e-05 -0 3.13702e-05)
(3.13623e-05 -1.86254e-06 -0 3.13623e-05 -0 3.13623e-05)
(6.61513e-05 -6.08457e-06 -0 6.61514e-05 -0 6.61513e-05)
(6.62478e-05 -6.09439e-06 -0 6.62479e-05 -0 6.62479e-05)
(6.62519e-05 -6.0949e-06 -0 6.62518e-05 -0 6.62518e-05)
(6.62351e-05 -6.09291e-06 -0 6.6235e-05 -0 6.6235e-05)
(0.000122271 -1.59667e-05 -0 0.000122271 -0 0.000122271)
(0.00012245 -1.59938e-05 -0 0.00012245 -0 0.00012245)
(0.000122456 -1.5995e-05 -0 0.000122456 -0 0.000122456)
(0.000122425 -1.59898e-05 -0 0.000122424 -0 0.000122425)
(0.000205396 -3.5582e-05 -0 0.000205396 -0 0.000205396)
(0.000205696 -3.56468e-05 -0 0.000205696 -0 0.000205696)
(0.000205703 -3.56489e-05 -0 0.000205702 -0 0.000205702)
(0.00020565 -3.5637e-05 -0 0.00020565 -0 0.00020565)
(0.000320662 -6.97117e-05 -0 0.000320663 -0 0.000320662)
(0.000321124 -6.98492e-05 -0 0.000321126 -0 0.000321125)
(0.000321128 -6.98506e-05 -0 0.000321127 -0 0.000321128)
(0.000321047 -6.98277e-05 -0 0.000321046 -0 0.000321046)
(0.000471811 -0.000122897 -0 0.000471812 -0 0.000471812)
(0.000472471 -0.000123156 -0 0.000472474 -0 0.000472472)
(0.000472464 -0.00012315 -0 0.000472462 -0 0.000472463)
(0.000472345 -0.000123113 -0 0.000472342 -0 0.000472343)
(0.000660359 -0.000198353 -0 0.000660361 -0 0.00066036)
(0.000661235 -0.000198779 -0 0.000661239 -0 0.000661237)
(0.000661204 -0.000198764 -0 0.000661202 -0 0.000661203)
(0.000661036 -0.000198707 -0 0.000661032 -0 0.000661034)
(0.00088501 -0.000297149 -0 0.000885014 -0 0.000885012)
(0.000886093 -0.000297776 -0 0.0008861 -0 0.000886097)
(0.00088602 -0.00029774 -0 0.000886015 -0 0.000886017)
(0.000885791 -0.000297657 -0 0.000885784 -0 0.000885788)
(0.00114154 -0.000417949 -0 0.00114154 -0 0.00114154)
(0.00114279 -0.000418773 -0 0.0011428 -0 0.00114279)
(0.00114264 -0.000418693 -0 0.00114263 -0 0.00114264)
(0.00114234 -0.000418581 -0 0.00114233 -0 0.00114234)
(0.00142319 -0.00055728 -0 0.0014232 -0 0.0014232)
(0.00142455 -0.00055825 -0 0.00142456 -0 0.00142455)
(0.0014243 -0.000558092 -0 0.00142428 -0 0.00142429)
(0.00142392 -0.00055795 -0 0.00142391 -0 0.00142391)
(0.00172158 -0.000710166 -0 0.0017216 -0 0.00172159)
(0.00172297 -0.000711193 -0 0.00172298 -0 0.00172297)
(0.00172257 -0.000710917 -0 0.00172256 -0 0.00172257)
(0.00172211 -0.000710747 -0 0.0017221 -0 0.00172211)
(0.00202771 -0.000870908 -0 0.00202773 -0 0.00202772)
(0.00202905 -0.000871887 -0 0.00202907 -0 0.00202906)
(0.0020285 -0.000871452 -0 0.00202848 -0 0.00202849)
(0.00202796 -0.000871263 -0 0.00202794 -0 0.00202795)
(0.00233299 -0.00103382 -0 0.00233301 -0 0.002333)
(0.00233425 -0.00103467 -0 0.00233427 -0 0.00233426)
(0.00233354 -0.00103404 -0 0.00233351 -0 0.00233352)
(0.00233292 -0.00103384 -0 0.00233291 -0 0.00233291)
(0.00263003 -0.00119387 -0 0.00263006 -0 0.00263005)
(0.00263121 -0.00119451 -0 0.00263123 -0 0.00263122)
(0.00263034 -0.00119369 -0 0.00263032 -0 0.00263033)
(0.00262967 -0.00119348 -0 0.00262965 -0 0.00262966)
(0.00291307 -0.00134912 -0 0.0029131 -0 0.00291309)
(0.00291415 -0.00134955 -0 0.00291418 -0 0.00291417)
(0.00291317 -0.00134843 -0 0.00291315 -0 0.00291316)
(0.00291247 -0.00134824 -0 0.00291245 -0 0.00291246)
(0.00317839 -0.00147796 -0 0.00317842 -0 0.00317841)
(0.00317938 -0.00147842 -0 0.0031794 -0 0.00317939)
(0.00317832 -0.00147791 -0 0.0031783 -0 0.00317831)
(0.0031776 -0.00147758 -0 0.00317758 -0 0.00317759)
(0.00342487 -0.00159257 -0 0.00342489 -0 0.00342488)
(0.00342575 -0.00159298 -0 0.00342578 -0 0.00342576)
(0.00342461 -0.00159244 -0 0.00342458 -0 0.00342459)
(0.00342391 -0.00159211 -0 0.00342388 -0 0.0034239)
(0.00365156 -0.00169798 -0 0.00365159 -0 0.00365157)
(0.00365235 -0.00169835 -0 0.00365237 -0 0.00365236)
(0.00365114 -0.00169778 -0 0.00365112 -0 0.00365113)
(0.00365049 -0.00169747 -0 0.00365047 -0 0.00365048)
(0.00385786 -0.00179392 -0 0.00385789 -0 0.00385787)
(0.00385855 -0.00179424 -0 0.00385858 -0 0.00385857)
(0.00385732 -0.00179365 -0 0.0038573 -0 0.00385731)
(0.00385675 -0.00179338 -0 0.00385672 -0 0.00385673)
(0.00404369 -0.00188033 -0 0.00404371 -0 0.0040437)
(0.00404429 -0.00188061 -0 0.00404432 -0 0.0040443)
(0.00404305 -0.00188002 -0 0.00404303 -0 0.00404304)
(0.00404258 -0.0018798 -0 0.00404255 -0 0.00404257)
(0.00420943 -0.00195741 -0 0.00420945 -0 0.00420944)
(0.00420994 -0.00195764 -0 0.00420996 -0 0.00420995)
(0.00420871 -0.00195706 -0 0.00420869 -0 0.0042087)
(0.00420837 -0.00195691 -0 0.00420835 -0 0.00420836)
(0.00435582 -0.0020255 -0 0.00435584 -0 0.00435583)
(0.00435623 -0.00202569 -0 0.00435625 -0 0.00435624)
(0.00435503 -0.00202512 -0 0.004355 -0 0.00435501)
(0.00435484 -0.00202504 -0 0.00435482 -0 0.00435483)
(0.00448385 -0.00208509 -0 0.00448387 -0 0.00448386)
(0.00448415 -0.00208523 -0 0.00448417 -0 0.00448416)
(0.00448297 -0.00208467 -0 0.00448295 -0 0.00448296)
(0.00448295 -0.00208466 -0 0.00448293 -0 0.00448294)
(0.00459465 -0.00213671 -0 0.00459467 -0 0.00459466)
(0.00459483 -0.0021368 -0 0.00459486 -0 0.00459485)
(0.00459368 -0.00213625 -0 0.00459366 -0 0.00459367)
(0.00459383 -0.00213632 -0 0.00459381 -0 0.00459382)
(0.00468943 -0.00218099 -0 0.00468945 -0 0.00468944)
(0.0046895 -0.00218103 -0 0.00468953 -0 0.00468952)
(0.00468839 -0.0021805 -0 0.00468836 -0 0.00468838)
(0.00468871 -0.00218064 -0 0.00468869 -0 0.0046887)
(0.00476944 -0.00221859 -0 0.00476947 -0 0.00476945)
(0.00476942 -0.00221858 -0 0.00476944 -0 0.00476943)
(0.00476833 -0.00221807 -0 0.0047683 -0 0.00476831)
(0.00476884 -0.0022183 -0 0.00476882 -0 0.00476883)
(0.00483591 -0.00225024 -0 0.00483594 -0 0.00483593)
(0.00483582 -0.0022502 -0 0.00483584 -0 0.00483583)
(0.00483474 -0.00224969 -0 0.0048347 -0 0.00483472)
(0.00483546 -0.00225001 -0 0.00483543 -0 0.00483544)
(0.00489005 -0.00227572 -0 0.00489009 -0 0.00489007)
(0.0048899 -0.00227566 -0 0.00488992 -0 0.00488991)
(0.00488881 -0.00227514 -0 0.00488877 -0 0.00488879)
(0.00488974 -0.00227555 -0 0.00488972 -0 0.00488973)
(0.004933 -0.00229564 -0 0.00493305 -0 0.00493302)
(0.00493279 -0.00229555 -0 0.00493282 -0 0.0049328)
(0.00493167 -0.00229501 -0 0.00493162 -0 0.00493165)
(0.00493283 -0.00229552 -0 0.00493281 -0 0.00493282)
(0.00496581 -0.00231092 -0 0.00496587 -0 0.00496584)
(0.00496555 -0.0023108 -0 0.00496557 -0 0.00496556)
(0.00496438 -0.00231023 -0 0.00496432 -0 0.00496435)
(0.00496577 -0.00231085 -0 0.00496575 -0 0.00496576)
(0.00498945 -0.00232199 -0 0.00498952 -0 0.00498948)
(0.00498911 -0.00232183 -0 0.00498912 -0 0.00498911)
(0.00498787 -0.00232123 -0 0.00498781 -0 0.00498784)
(0.0049895 -0.00232195 -0 0.00498948 -0 0.00498949)
(0.00500476 -0.00232926 -0 0.00500484 -0 0.0050048)
(0.00500433 -0.00232904 -0 0.00500433 -0 0.00500433)
(0.00500302 -0.00232841 -0 0.00500294 -0 0.00500298)
(0.00500488 -0.00232923 -0 0.00500489 -0 0.00500488)
(0.00501254 -0.00233308 -0 0.00501262 -0 0.00501258)
(0.005012 -0.00233281 -0 0.00501197 -0 0.00501198)
(0.0050106 -0.00233213 -0 0.00501052 -0 0.00501056)
(0.00501271 -0.00233307 -0 0.00501274 -0 0.00501273)
(0.00501349 -0.0023338 -0 0.00501356 -0 0.00501353)
(0.00501282 -0.00233346 -0 0.00501276 -0 0.00501279)
(0.00501133 -0.00233275 -0 0.00501126 -0 0.0050113)
(0.00501371 -0.0023338 -0 0.00501377 -0 0.00501374)
(0.00500826 -0.00233171 -0 0.0050083 -0 0.00500828)
(0.00500744 -0.0023313 -0 0.00500734 -0 0.00500739)
(0.00500587 -0.00233058 -0 0.00500583 -0 0.00500585)
(0.00500851 -0.00233173 -0 0.00500861 -0 0.00500856)
(0.00499743 -0.0023271 -0 0.0049974 -0 0.00499742)
(0.00499645 -0.00232663 -0 0.00499629 -0 0.00499637)
(0.00499481 -0.00232589 -0 0.00499484 -0 0.00499482)
(0.0049977 -0.00232714 -0 0.00499786 -0 0.00499778)
(0.00498155 -0.00232024 -0 0.00498141 -0 0.00498149)
(0.00498039 -0.00231971 -0 0.00498018 -0 0.00498029)
(0.00497868 -0.00231896 -0 0.00497882 -0 0.00497875)
(0.00498182 -0.00232028 -0 0.00498203 -0 0.00498192)
(0.0049611 -0.00231137 -0 0.00496081 -0 0.00496095)
(0.00495976 -0.00231079 -0 0.00495951 -0 0.00495963)
(0.00495797 -0.00231003 -0 0.00495825 -0 0.00495811)
(0.00496134 -0.0023114 -0 0.00496159 -0 0.00496146)
(0.00493641 -0.00229791 -0 0.00493604 -0 0.00493621)
(0.00493492 -0.0022965 -0 0.00493464 -0 0.00493478)
(0.0049331 -0.0022975 -0 0.00493347 -0 0.0049333)
(0.00493667 -0.00230071 -0 0.00493695 -0 0.00493681)
(0.00490775 -0.00227867 -0 0.0049074 -0 0.00490758)
(0.00490616 -0.00227777 -0 0.00490588 -0 0.00490602)
(0.00490439 -0.00227883 -0 0.00490474 -0 0.00490456)
(0.00490815 -0.00228625 -0 0.00490843 -0 0.00490829)
(0.00487543 -0.00225958 -0 0.00487517 -0 0.00487531)
(0.00487377 -0.00225889 -0 0.00487349 -0 0.00487363)
(0.00487207 -0.00226023 -0 0.00487233 -0 0.00487219)
(0.004876 -0.00226723 -0 0.00487628 -0 0.00487614)
(0.00483972 -0.00223915 -0 0.00483955 -0 0.00483964)
(0.004838 -0.0022386 -0 0.00483772 -0 0.00483786)
(0.00483633 -0.00224011 -0 0.0048365 -0 0.00483642)
(0.00484046 -0.00224795 -0 0.00484074 -0 0.0048406)
(0.00480085 -0.00221741 -0 0.00480074 -0 0.0048008)
(0.00479906 -0.00221701 -0 0.0047988 -0 0.00479893)
(0.00479739 -0.00221859 -0 0.0047975 -0 0.00479745)
(0.00480175 -0.00222729 -0 0.00480201 -0 0.00480188)
(0.00475904 -0.00219436 -0 0.00475895 -0 0.004759)
(0.00475717 -0.00219483 -0 0.00475693 -0 0.00475705)
(0.00475546 -0.00219551 -0 0.00475554 -0 0.0047555)
(0.00476006 -0.00220534 -0 0.00476031 -0 0.00476019)
(0.00471446 -0.00217044 -0 0.00471439 -0 0.00471443)
(0.0047125 -0.00217066 -0 0.00471226 -0 0.00471238)
(0.00471073 -0.00217166 -0 0.0047108 -0 0.00471077)
(0.00471558 -0.00218217 -0 0.00471582 -0 0.0047157)
(0.00466728 -0.00214564 -0 0.00466723 -0 0.00466725)
(0.00466519 -0.00214482 -0 0.00466496 -0 0.00466507)
(0.00466339 -0.00214683 -0 0.00466344 -0 0.00466342)
(0.00466846 -0.00215792 -0 0.00466868 -0 0.00466857)
(0.00461761 -0.00211959 -0 0.00461757 -0 0.00461759)
(0.0046154 -0.00211881 -0 0.0046152 -0 0.0046153)
(0.00461355 -0.00212059 -0 0.00461359 -0 0.00461357)
(0.00461884 -0.00213262 -0 0.00461904 -0 0.00461894)
(0.00456555 -0.00209249 -0 0.00456551 -0 0.00456553)
(0.00456325 -0.00209239 -0 0.00456308 -0 0.00456317)
(0.00456132 -0.002093 -0 0.00456136 -0 0.00456133)
(0.00456683 -0.0021064 -0 0.00456701 -0 0.00456692)
(0.00451118 -0.0020636 -0 0.00451113 -0 0.00451115)
(0.00450881 -0.00206431 -0 0.00450866 -0 0.00450874)
(0.00450679 -0.00206483 -0 0.00450684 -0 0.00450682)
(0.00451251 -0.00207917 -0 0.00451266 -0 0.00451259)
(0.0044546 -0.00203491 -0 0.00445454 -0 0.00445457)
(0.00445213 -0.00203521 -0 0.00445201 -0 0.00445206)
(0.00445008 -0.0020361 -0 0.00445014 -0 0.00445011)
(0.00445595 -0.00205077 -0 0.00445607 -0 0.00445601)
(0.00439585 -0.00200614 -0 0.00439579 -0 0.00439582)
(0.00439323 -0.00200501 -0 0.00439313 -0 0.00439318)
(0.00439121 -0.00200644 -0 0.00439127 -0 0.00439124)
(0.00439717 -0.00202142 -0 0.00439727 -0 0.00439722)
(0.00433485 -0.00197523 -0 0.00433482 -0 0.00433483)
(0.0043321 -0.0019737 -0 0.00433203 -0 0.00433207)
(0.00433018 -0.00197694 -0 0.00433021 -0 0.0043302)
(0.00433616 -0.00199083 -0 0.00433623 -0 0.00433619)
(0.00427162 -0.00194373 -0 0.00427161 -0 0.00427162)
(0.0042688 -0.00194199 -0 0.00426872 -0 0.00426876)
(0.00426694 -0.00194505 -0 0.00426695 -0 0.00426694)
(0.00427291 -0.00195985 -0 0.00427299 -0 0.00427295)
(0.00420624 -0.001911 -0 0.0042062 -0 0.00420623)
(0.00420341 -0.0019113 -0 0.00420332 -0 0.00420337)
(0.00420152 -0.00191261 -0 0.00420156 -0 0.00420154)
(0.00420751 -0.0019277 -0 0.0042076 -0 0.00420755)
(0.00413878 -0.0018779 -0 0.00413869 -0 0.00413873)
(0.00413591 -0.00187769 -0 0.0041358 -0 0.00413585)
(0.004134 -0.00187955 -0 0.00413409 -0 0.00413405)
(0.00414 -0.00189491 -0 0.00414011 -0 0.00414005)
(0.00406927 -0.00184436 -0 0.00406914 -0 0.0040692)
(0.00406627 -0.0018418 -0 0.00406618 -0 0.00406622)
(0.00406445 -0.00184609 -0 0.00406457 -0 0.00406451)
(0.00407045 -0.00186127 -0 0.00407055 -0 0.00407051)
(0.00399773 -0.00180942 -0 0.00399759 -0 0.00399766)
(0.00399463 -0.00180816 -0 0.00399459 -0 0.00399461)
(0.00399286 -0.0018103 -0 0.003993 -0 0.00399293)
(0.00399893 -0.00182701 -0 0.00399897 -0 0.00399895)
(0.00392419 -0.00177341 -0 0.00392405 -0 0.00392412)
(0.00392099 -0.00177186 -0 0.00392101 -0 0.00392101)
(0.00391933 -0.00177487 -0 0.00391947 -0 0.00391941)
(0.00392543 -0.0017916 -0 0.0039254 -0 0.00392541)
(0.00384867 -0.00173654 -0 0.00384855 -0 0.00384861)
(0.00384539 -0.00173431 -0 0.00384542 -0 0.00384541)
(0.00384397 -0.00174105 -0 0.0038441 -0 0.00384403)
(0.00384993 -0.00175441 -0 0.0038499 -0 0.00384991)
(0.00377123 -0.00169893 -0 0.00377113 -0 0.00377118)
(0.00376795 -0.00169736 -0 0.0037679 -0 0.00376793)
(0.0037667 -0.00170393 -0 0.0037668 -0 0.00376675)
(0.00377247 -0.00171728 -0 0.00377252 -0 0.00377249)
(0.0036919 -0.00166056 -0 0.00369183 -0 0.00369186)
(0.00368866 -0.00165914 -0 0.0036885 -0 0.00368858)
(0.00368747 -0.00166565 -0 0.00368754 -0 0.00368751)
(0.00369313 -0.00167965 -0 0.00369329 -0 0.00369321)
(0.00361072 -0.00162137 -0 0.00361067 -0 0.00361069)
(0.0036075 -0.00162006 -0 0.00360729 -0 0.00360739)
(0.00360627 -0.00162586 -0 0.00360632 -0 0.00360629)
(0.00361197 -0.00164156 -0 0.00361219 -0 0.00361208)
(0.00352769 -0.00158137 -0 0.00352765 -0 0.00352767)
(0.00352449 -0.00157993 -0 0.00352429 -0 0.00352439)
(0.00352308 -0.00158407 -0 0.00352312 -0 0.0035231)
(0.00352902 -0.00160309 -0 0.00352923 -0 0.00352912)
(0.00344276 -0.00153795 -0 0.00344273 -0 0.00344274)
(0.00343971 -0.00154159 -0 0.00343958 -0 0.00343964)
(0.00343798 -0.00154128 -0 0.00343802 -0 0.00343801)
(0.00344428 -0.00156373 -0 0.00344442 -0 0.00344435)
(0.00335611 -0.0014993 -0 0.00335607 -0 0.00335609)
(0.00335304 -0.00149671 -0 0.00335296 -0 0.003353)
(0.00335121 -0.00150209 -0 0.00335125 -0 0.00335123)
(0.0033577 -0.00152227 -0 0.00335777 -0 0.00335773)
(0.00326754 -0.00145283 -0 0.00326748 -0 0.00326752)
(0.00326473 -0.00145852 -0 0.00326467 -0 0.00326471)
(0.00326264 -0.00145695 -0 0.00326269 -0 0.00326266)
(0.00326933 -0.00148151 -0 0.00326939 -0 0.00326935)
(0.00317722 -0.00141 -0 0.00317712 -0 0.00317717)
(0.00317467 -0.00141444 -0 0.00317456 -0 0.00317462)
(0.00317239 -0.00141507 -0 0.00317249 -0 0.00317244)
(0.00317915 -0.00143849 -0 0.00317927 -0 0.00317921)
(0.00308527 -0.00136602 -0 0.00308512 -0 0.00308519)
(0.00308275 -0.00137005 -0 0.00308259 -0 0.00308267)
(0.0030805 -0.00137172 -0 0.00308065 -0 0.00308058)
(0.00308721 -0.00139459 -0 0.00308737 -0 0.0030873)
(0.0029918 -0.00132486 -0 0.00299167 -0 0.00299173)
(0.00298886 -0.00132146 -0 0.00298873 -0 0.00298879)
(0.002987 -0.00132764 -0 0.00298714 -0 0.00298707)
(0.00299356 -0.00134962 -0 0.00299369 -0 0.00299363)
(0.00289662 -0.00127865 -0 0.00289653 -0 0.00289658)
(0.00289324 -0.00127594 -0 0.0028932 -0 0.00289323)
(0.00289192 -0.00128376 -0 0.002892 -0 0.00289195)
(0.00289821 -0.00130319 -0 0.00289825 -0 0.00289822)
(0.00279968 -0.00123239 -0 0.00279964 -0 0.00279966)
(0.00279606 -0.00122918 -0 0.00279612 -0 0.00279609)
(0.00279519 -0.00123804 -0 0.00279523 -0 0.00279521)
(0.00280117 -0.00125633 -0 0.00280111 -0 0.00280114)
(0.00270102 -0.00118532 -0 0.00270106 -0 0.00270103)
(0.00269734 -0.00118195 -0 0.00269749 -0 0.00269741)
(0.00269679 -0.0011904 -0 0.00269675 -0 0.00269677)
(0.00270249 -0.00120881 -0 0.00270234 -0 0.00270242)
(0.0026007 -0.00113758 -0 0.00260084 -0 0.00260077)
(0.00259709 -0.00113417 -0 0.00259733 -0 0.00259722)
(0.00259678 -0.00114241 -0 0.00259664 -0 0.00259671)
(0.0026022 -0.00115984 -0 0.00260195 -0 0.00260207)
(0.00249881 -0.00108922 -0 0.00249903 -0 0.00249893)
(0.00249541 -0.00108572 -0 0.00249572 -0 0.00249556)
(0.00249529 -0.00109471 -0 0.00249506 -0 0.00249516)
(0.00250024 -0.00110897 -0 0.00249993 -0 0.00250009)
(0.00239543 -0.00104017 -0 0.00239565 -0 0.00239555)
(0.00239257 -0.00104088 -0 0.00239288 -0 0.00239273)
(0.00239222 -0.00104376 -0 0.002392 -0 0.0023921)
(0.00239671 -0.00105773 -0 0.00239639 -0 0.00239655)
(0.00229056 -0.000989011 -0 0.0022907 -0 0.00229063)
(0.00228842 -0.000992118 -0 0.00228869 -0 0.00228855)
(0.00228767 -0.000993061 -0 0.00228753 -0 0.0022876)
(0.00229173 -0.00100647 -0 0.00229145 -0 0.00229159)
(0.00218426 -0.000938118 -0 0.00218431 -0 0.00218428)
(0.0021828 -0.000941524 -0 0.00218299 -0 0.00218289)
(0.00218177 -0.000942391 -0 0.00218172 -0 0.00218175)
(0.00218537 -0.000953855 -0 0.00218517 -0 0.00218527)
(0.00207658 -0.000885401 -0 0.00207659 -0 0.00207659)
(0.00207571 -0.000890371 -0 0.00207582 -0 0.00207577)
(0.00207453 -0.000889365 -0 0.00207452 -0 0.00207453)
(0.00207775 -0.000901469 -0 0.00207764 -0 0.0020777)
(0.00196771 -0.000832502 -0 0.0019677 -0 0.00196771)
(0.00196724 -0.000838034 -0 0.00196728 -0 0.00196726)
(0.00196606 -0.000836567 -0 0.00196606 -0 0.00196606)
(0.001969 -0.000848344 -0 0.00196896 -0 0.00196898)
(0.00185782 -0.000779002 -0 0.00185782 -0 0.00185782)
(0.00185757 -0.000784911 -0 0.00185757 -0 0.00185757)
(0.0018565 -0.000783115 -0 0.00185651 -0 0.0018565)
(0.00185922 -0.000794695 -0 0.00185922 -0 0.00185922)
(0.00174711 -0.000724859 -0 0.0017471 -0 0.00174711)
(0.00174697 -0.000731157 -0 0.00174694 -0 0.00174695)
(0.00174602 -0.000728879 -0 0.00174603 -0 0.00174602)
(0.00174858 -0.000740661 -0 0.00174862 -0 0.0017486)
(0.00163577 -0.000670018 -0 0.00163575 -0 0.00163576)
(0.00163569 -0.000676961 -0 0.00163563 -0 0.00163566)
(0.00163484 -0.000673894 -0 0.00163485 -0 0.00163484)
(0.00163731 -0.000686628 -0 0.00163737 -0 0.00163734)
(0.00152399 -0.000614409 -0 0.00152396 -0 0.00152397)
(0.00152404 -0.000622581 -0 0.00152396 -0 0.001524)
(0.0015232 -0.00061837 -0 0.00152323 -0 0.00152322)
(0.00152569 -0.00063252 -0 0.00152577 -0 0.00152573)
(0.00141197 -0.000555102 -0 0.00141193 -0 0.00141195)
(0.00141243 -0.00056845 -0 0.00141236 -0 0.00141239)
(0.00141114 -0.000558037 -0 0.00141118 -0 0.00141115)
(0.00141418 -0.000579792 -0 0.00141425 -0 0.00141422)
(0.00130055 -0.000501071 -0 0.00130051 -0 0.00130053)
(0.00130128 -0.000512449 -0 0.00130124 -0 0.00130126)
(0.00129964 -0.00050452 -0 0.00129968 -0 0.00129966)
(0.00130314 -0.000524085 -0 0.00130318 -0 0.00130316)
(0.00119053 -0.000447206 -0 0.00119051 -0 0.00119052)
(0.00119119 -0.000456323 -0 0.0011912 -0 0.00119119)
(0.00118961 -0.000451688 -0 0.00118963 -0 0.00118963)
(0.00119312 -0.000467744 -0 0.00119311 -0 0.00119312)
(0.00108289 -0.000397374 -0 0.0010829 -0 0.0010829)
(0.00108278 -0.000397724 -0 0.00108284 -0 0.00108281)
(0.0010817 -0.000399414 -0 0.00108169 -0 0.00108169)
(0.00108486 -0.000410697 -0 0.00108479 -0 0.00108482)
(0.000977975 -0.00034381 -0 0.000977995 -0 0.000977992)
(0.000977529 -0.000347183 -0 0.000977621 -0 0.000977581)
(0.000976882 -0.000348955 -0 0.000976861 -0 0.000976864)
(0.000979275 -0.000354071 -0 0.000979181 -0 0.000979222)
(0.000876656 -0.000291331 -0 0.00087667 -0 0.000876662)
(0.000876225 -0.000294593 -0 0.000876285 -0 0.000876253)
(0.000875955 -0.000296533 -0 0.000875941 -0 0.000875949)
(0.000877625 -0.000300306 -0 0.000877564 -0 0.000877596)
(0.000780516 -0.000241292 -0 0.000780531 -0 0.000780524)
(0.000780049 -0.000244141 -0 0.000780068 -0 0.000780057)
(0.000780092 -0.000246007 -0 0.000780076 -0 0.000780083)
(0.000781336 -0.000248738 -0 0.000781317 -0 0.000781328)
(0.000691401 -0.000194103 -0 0.000691423 -0 0.000691414)
(0.000690925 -0.000196364 -0 0.000690923 -0 0.000690924)
(0.000691069 -0.000197944 -0 0.000691047 -0 0.000691056)
(0.000692096 -0.00020004 -0 0.000692099 -0 0.000692098)
(0.000611408 -0.000150452 -0 0.000611428 -0 0.00061142)
(0.000610928 -0.000152022 -0 0.000610919 -0 0.000610923)
(0.00061106 -0.000153185 -0 0.00061104 -0 0.000611048)
(0.000611923 -0.000154871 -0 0.000611932 -0 0.000611928)
(0.00054289 -0.00011084 -0 0.000542899 -0 0.000542896)
(0.000542393 -0.000111727 -0 0.000542385 -0 0.000542388)
(0.000542454 -0.000112508 -0 0.000542445 -0 0.000542448)
(0.000543194 -0.000113925 -0 0.000543203 -0 0.000543199)
(0.000488312 -7.5343e-05 -0 0.000488313 -0 0.000488312)
(0.000487753 -7.56534e-05 -0 0.000487749 -0 0.000487752)
(0.000487768 -7.63919e-05 -0 0.000487767 -0 0.000487768)
(0.000488485 -7.74664e-05 -0 0.000488489 -0 0.000488487)
(0.000450077 -4.32546e-05 -0 0.000450082 -0 0.00045008)
(0.000449239 -4.28992e-05 -0 0.000449241 -0 0.00044924)
(0.000449444 -4.4461e-05 -0 0.000449439 -0 0.000449441)
(0.000450292 -4.49459e-05 -0 0.00045029 -0 0.000450291)
(0.000430332 -1.42312e-05 -0 0.000430347 -0 0.000430342)
(0.0004293 -1.41158e-05 -0 0.000429307 -0 0.000429303)
(0.0004296 -1.46681e-05 -0 0.000429585 -0 0.00042959)
(0.000430608 -1.491e-05 -0 0.000430601 -0 0.000430605)
)
;

boundaryField
{
    inlet
    {
        type            cyclic;
    }
    outlet
    {
        type            cyclic;
    }
    fixedWalls-bottom
    {
        type            kqRWallFunction;
        value           nonuniform List<symmTensor> 4((1.56975e-08 -0 -0 1.56975e-08 -0 1.56975e-08) (1.57201e-08 -0 -0 1.57201e-08 -0 1.57201e-08) (1.57213e-08 -0 -0 1.57213e-08 -0 1.57213e-08) (1.57173e-08 -0 -0 1.57173e-08 -0 1.57173e-08));
    }
    fixedWalls-top
    {
        type            symmetry;
    }
    frontAndBack
    {
        type            empty;
    }
}


// ************************************************************************* //
