/*--------------------------------*- C++ -*----------------------------------*\
  =========                 |
  \\      /  F ield         | OpenFOAM: The Open Source CFD Toolbox
   \\    /   O peration     | Website:  https://openfoam.org
    \\  /    A nd           | Version:  10
     \\/     M anipulation  |
\*---------------------------------------------------------------------------*/
FoamFile
{
    format      ascii;
    class       volScalarField;
    location    "7500";
    object      nut;
}
// * * * * * * * * * * * * * * * * * * * * * * * * * * * * * * * * * * * * * //

dimensions      [0 2 -1 0 0 0 0];

internalField   nonuniform List<scalar> 
400
(
8.53265e-16
8.52394e-16
8.52101e-16
8.52511e-16
1.49646e-13
1.49494e-13
1.49443e-13
1.49515e-13
3.15071e-12
3.1475e-12
3.14642e-12
3.14793e-12
2.43889e-11
2.4364e-11
2.43556e-11
2.43673e-11
1.11592e-10
1.11478e-10
1.1144e-10
1.11493e-10
3.72616e-10
3.72232e-10
3.72105e-10
3.72287e-10
1.01113e-09
1.01009e-09
1.00974e-09
1.01024e-09
2.37107e-09
2.3686e-09
2.3678e-09
2.36898e-09
4.99182e-09
4.98658e-09
4.98491e-09
4.98745e-09
9.67921e-09
9.66896e-09
9.66577e-09
9.67081e-09
1.76032e-08
1.75843e-08
1.75786e-08
1.7588e-08
3.04426e-08
3.04093e-08
3.03996e-08
3.04164e-08
5.06097e-08
5.05525e-08
5.05368e-08
5.05658e-08
8.16034e-08
8.15068e-08
8.14818e-08
8.15302e-08
1.28561e-07
1.28398e-07
1.2836e-07
1.28438e-07
1.99114e-07
1.9884e-07
1.98782e-07
1.98906e-07
3.04713e-07
3.0425e-07
3.04161e-07
3.04356e-07
4.62677e-07
4.61887e-07
4.61752e-07
4.62057e-07
6.99386e-07
6.98023e-07
6.97819e-07
6.98299e-07
1.05526e-06
1.05289e-06
1.05258e-06
1.05335e-06
1.59256e-06
1.58845e-06
1.58796e-06
1.5892e-06
2.40769e-06
2.40057e-06
2.39979e-06
2.40184e-06
3.65043e-06
3.63814e-06
3.63684e-06
3.6403e-06
5.55382e-06
5.5327e-06
5.53038e-06
5.53647e-06
8.4794e-06
8.44356e-06
8.43962e-06
8.45027e-06
1.29826e-05
1.29235e-05
1.29159e-05
1.29352e-05
1.98972e-05
1.98036e-05
1.97871e-05
1.98243e-05
2.59647e-05
2.59554e-05
2.59465e-05
2.59526e-05
2.8718e-05
2.87099e-05
2.87003e-05
2.87065e-05
3.15173e-05
3.15106e-05
3.15004e-05
3.15066e-05
3.43472e-05
3.4342e-05
3.43314e-05
3.43374e-05
3.71911e-05
3.71876e-05
3.71766e-05
3.71824e-05
4.00331e-05
4.00312e-05
4.00201e-05
4.00256e-05
4.28574e-05
4.28574e-05
4.28461e-05
4.28512e-05
4.56489e-05
4.5651e-05
4.56396e-05
4.56442e-05
4.84235e-05
4.84272e-05
4.84152e-05
4.842e-05
5.12028e-05
5.12076e-05
5.11948e-05
5.12003e-05
5.40029e-05
5.40085e-05
5.39949e-05
5.40015e-05
5.68361e-05
5.68422e-05
5.68277e-05
5.68355e-05
5.97113e-05
5.97175e-05
5.97021e-05
5.97115e-05
6.2635e-05
6.26411e-05
6.26247e-05
6.26358e-05
6.56117e-05
6.56173e-05
6.55999e-05
6.56131e-05
6.86445e-05
6.86493e-05
6.86308e-05
6.86464e-05
7.17353e-05
7.17391e-05
7.17194e-05
7.17376e-05
7.48851e-05
7.48876e-05
7.48666e-05
7.48879e-05
7.80942e-05
7.80951e-05
7.80727e-05
7.80976e-05
8.13625e-05
8.13615e-05
8.13373e-05
8.13663e-05
8.46886e-05
8.46856e-05
8.46594e-05
8.46933e-05
8.80712e-05
8.8066e-05
8.80376e-05
8.80769e-05
9.15082e-05
9.15006e-05
9.14697e-05
9.15153e-05
9.49969e-05
9.49868e-05
9.49531e-05
9.50056e-05
9.85339e-05
9.8521e-05
9.84844e-05
9.85446e-05
0.000102115
0.000102099
0.000102059
0.000102128
0.000105735
0.000105716
0.000105673
0.000105751
0.000109388
0.000109366
0.000109319
0.000109408
0.000113068
0.000113042
0.000112991
0.000113091
0.000116765
0.000116736
0.000116681
0.000116792
0.000120469
0.000120437
0.000120378
0.000120502
0.00012417
0.000124134
0.000124071
0.000124209
0.000127854
0.000127814
0.000127747
0.000127899
0.000131506
0.000131462
0.000131391
0.000131558
0.000135107
0.00013506
0.000134985
0.000135167
0.000138637
0.000138588
0.000138509
0.000138706
0.000142074
0.000142022
0.000141939
0.000142152
0.00014539
0.000145336
0.000145249
0.000145478
0.000148555
0.0001485
0.00014841
0.000148653
0.000151536
0.00015148
0.000151386
0.000151643
0.000154294
0.000154238
0.000154141
0.000154408
0.000156787
0.000156731
0.000156632
0.000156907
0.000158967
0.000158913
0.00015881
0.000159089
0.00016078
0.000160729
0.000160624
0.000160901
0.000162168
0.000162121
0.000162012
0.000162281
0.000163062
0.000163019
0.000162905
0.000163156
0.000163379
0.000163341
0.00016322
0.000163443
0.000163014
0.000162982
0.000162846
0.000163028
0.000161856
0.000161832
0.000161682
0.00016183
0.000159865
0.000159848
0.00015968
0.000159802
0.000157
0.000156987
0.000156801
0.000156905
0.000153224
0.000153215
0.000153009
0.0001531
0.000148508
0.000148502
0.000148276
0.000148357
0.000142817
0.000142812
0.000142565
0.00014264
0.000136056
0.000136046
0.000135772
0.000135851
0.000102551
0.000101225
9.83442e-05
0.000100983
6.13288e-05
6.0675e-05
5.92604e-05
6.04424e-05
3.94246e-05
3.91071e-05
3.83716e-05
3.89173e-05
2.64993e-05
2.63606e-05
2.59782e-05
2.62182e-05
1.84292e-05
1.83975e-05
1.8199e-05
1.82906e-05
1.33178e-05
1.32999e-05
1.32044e-05
1.32287e-05
9.94641e-06
9.93601e-06
9.88607e-06
9.88814e-06
7.60375e-06
7.59738e-06
7.56479e-06
7.56432e-06
5.89677e-06
5.89235e-06
5.86826e-06
5.87034e-06
4.61258e-06
4.60892e-06
4.58899e-06
4.59377e-06
3.63461e-06
3.63142e-06
3.61444e-06
3.62165e-06
2.89386e-06
2.89123e-06
2.87698e-06
2.88603e-06
2.33919e-06
2.337e-06
2.3251e-06
2.33527e-06
1.93047e-06
1.92854e-06
1.91862e-06
1.92927e-06
1.63739e-06
1.6356e-06
1.6273e-06
1.638e-06
1.43841e-06
1.43667e-06
1.42964e-06
1.44018e-06
1.31928e-06
1.31754e-06
1.31138e-06
1.32174e-06
1.27165e-06
1.26986e-06
1.26413e-06
1.27439e-06
)
;

boundaryField
{
    inlet
    {
        type            cyclic;
    }
    outlet
    {
        type            cyclic;
    }
    fixedWalls-bottom
    {
        type            nutkWallFunction;
        Cmu             0.09;
        kappa           0.41;
        E               9.8;
        value           uniform 0;
    }
    fixedWalls-top
    {
        type            symmetry;
    }
    frontAndBack
    {
        type            empty;
    }
}


// ************************************************************************* //
