/*--------------------------------*- C++ -*----------------------------------*\
  =========                 |
  \\      /  F ield         | OpenFOAM: The Open Source CFD Toolbox
   \\    /   O peration     | Website:  https://openfoam.org
    \\  /    A nd           | Version:  10
     \\/     M anipulation  |
\*---------------------------------------------------------------------------*/
FoamFile
{
    format      ascii;
    class       volScalarField;
    location    "7500";
    object      omega;
}
// * * * * * * * * * * * * * * * * * * * * * * * * * * * * * * * * * * * * * //

dimensions      [0 0 -1 0 0 0 0];

internalField   nonuniform List<scalar> 
400
(
191219
191219
191219
191219
32711.3
32711.2
32711.2
32711.2
11003.7
11003.6
11003.6
11003.6
5168.54
5168.52
5168.52
5168.51
2923.1
2923.1
2923.1
2923.08
1854.16
1854.16
1854.16
1854.14
1270.01
1270.03
1270.02
1270
918.689
918.704
918.697
918.674
691.937
691.954
691.947
691.921
537.326
537.345
537.336
537.307
427.031
427.053
427.043
427.011
345.215
345.241
345.231
345.196
282.373
282.406
282.395
282.359
232.588
232.629
232.618
232.582
192.093
192.144
192.133
192.098
158.462
158.524
158.514
158.48
130.131
130.203
130.194
130.162
106.083
106.165
106.157
106.128
85.6503
85.7392
85.733
85.7062
68.3659
68.4593
68.4546
68.4296
53.8766
53.9709
53.9677
53.9443
41.8813
41.9728
41.971
41.9492
32.0991
32.1844
32.1841
32.1637
24.2551
24.3317
24.3331
24.3137
18.0784
18.1444
18.1463
18.1287
13.3066
13.3605
13.3637
13.3474
9.69344
9.73497
9.73968
9.72389
7.0031
7.03416
7.04022
7.02512
5.02071
5.04339
5.05033
5.03636
3.57479
3.59111
3.59808
3.58563
2.53362
2.54527
2.55164
2.54096
1.79284
1.80117
1.80658
1.79774
1.27114
1.27717
1.28147
1.2744
0.906426
0.910889
0.914062
0.908641
0.653509
0.65696
0.658988
0.655061
0.48049
0.483327
0.484258
0.481641
0.363733
0.366208
0.366162
0.364666
0.286065
0.288115
0.287688
0.286872
0.235219
0.236949
0.236391
0.235981
0.202603
0.204086
0.203508
0.203342
0.18226
0.183544
0.183004
0.182956
0.170098
0.171229
0.170758
0.170748
0.163354
0.164374
0.163998
0.163976
0.160187
0.161131
0.160804
0.16082
0.159385
0.160279
0.160048
0.160048
0.160165
0.161023
0.160861
0.160895
0.162022
0.162842
0.162761
0.162848
0.16464
0.165402
0.16542
0.165593
0.167823
0.168483
0.168632
0.168936
0.171454
0.172021
0.172263
0.172759
0.175469
0.175938
0.176286
0.176986
0.179835
0.180207
0.180659
0.181587
0.184539
0.184824
0.185371
0.186548
0.189584
0.189804
0.190422
0.191872
0.19498
0.195162
0.195824
0.197567
0.200743
0.200894
0.201594
0.203653
0.206891
0.207018
0.207749
0.210147
0.213442
0.213551
0.214306
0.217071
0.220414
0.22051
0.221282
0.224445
0.227819
0.22791
0.228693
0.232284
0.235657
0.235761
0.236547
0.2406
0.243911
0.244064
0.244845
0.249394
0.252529
0.252807
0.25358
0.258659
0.261392
0.261973
0.262731
0.26837
0.270787
0.271428
0.272254
0.278484
0.280476
0.281179
0.282092
0.288936
0.290384
0.291193
0.292176
0.299643
0.300462
0.301384
0.302425
0.310535
0.310675
0.311707
0.31281
0.321576
0.321093
0.32224
0.323424
0.332846
0.332059
0.333326
0.334634
0.344684
0.34445
0.345801
0.347316
0.357922
0.360558
0.361745
0.363867
0.375026
0.385593
0.385956
0.389382
0.400844
0.425217
0.425862
0.431362
0.442129
0.489498
0.490967
0.500433
0.507901
0.590033
0.593714
0.609865
0.609122
0.738252
0.746815
0.774326
0.756384
0.948663
0.956299
0.996144
0.96076
1.1762
1.18196
1.23062
1.183
1.48943
1.50083
1.56176
1.49946
2.14966
2.17807
2.25924
2.17666
3.46512
3.51011
3.60486
3.51281
5.14261
5.19747
5.30874
5.20791
7.01524
7.07181
7.18946
7.09199
9.05032
9.09833
9.20936
9.12797
11.1688
11.1901
11.285
11.2299
13.1445
13.1663
13.2316
13.2062
14.8518
14.8737
14.9175
14.9103
16.2869
16.309
16.3474
16.3416
17.5138
17.5371
17.5769
17.5622
18.6008
18.6269
18.675
18.6469
19.5753
19.6046
19.6628
19.6163
20.4082
20.4386
20.5046
20.4361
21.0592
21.0899
21.161
21.0694
21.5023
21.5328
21.6061
21.4928
21.7299
21.7602
21.8325
21.7013
21.7525
21.7828
21.8512
21.7079
21.5996
21.63
21.6934
21.5439
21.3216
21.3525
21.4116
21.2617
)
;

boundaryField
{
    inlet
    {
        type            cyclic;
    }
    outlet
    {
        type            cyclic;
    }
    fixedWalls-bottom
    {
        beta1           0.075;
        blended         0;
        type            omegaWallFunction;
        value           uniform 191219;
    }
    fixedWalls-top
    {
        type            symmetry;
    }
    frontAndBack
    {
        type            empty;
    }
}


// ************************************************************************* //
