/*--------------------------------*- C++ -*----------------------------------*\
  =========                 |
  \\      /  F ield         | OpenFOAM: The Open Source CFD Toolbox
   \\    /   O peration     | Website:  https://openfoam.org
    \\  /    A nd           | Version:  10
     \\/     M anipulation  |
\*---------------------------------------------------------------------------*/
FoamFile
{
    format      ascii;
    class       volScalarField;
    location    "7500";
    object      p;
}
// * * * * * * * * * * * * * * * * * * * * * * * * * * * * * * * * * * * * * //

dimensions      [0 2 -2 0 0 0 0];

internalField   nonuniform List<scalar> 
400
(
-3.32771e-14
8.92224e-08
-4.02054e-08
-1.29433e-07
-1.84347e-11
8.91368e-08
-4.0187e-08
-1.29348e-07
-3.83442e-11
8.90453e-08
-4.01672e-08
-1.29256e-07
-5.57874e-11
8.89662e-08
-4.01497e-08
-1.29177e-07
-7.10854e-11
8.88987e-08
-4.01345e-08
-1.29109e-07
-8.4396e-11
8.88411e-08
-4.01211e-08
-1.29052e-07
-9.5792e-11
8.87934e-08
-4.01098e-08
-1.29004e-07
-1.04944e-10
8.87562e-08
-4.01006e-08
-1.28967e-07
-1.118e-10
8.87301e-08
-4.00938e-08
-1.28941e-07
-1.16044e-10
8.87155e-08
-4.00895e-08
-1.28926e-07
-1.17617e-10
8.87127e-08
-4.0088e-08
-1.28923e-07
-1.16221e-10
8.87221e-08
-4.00893e-08
-1.28933e-07
-1.11802e-10
8.87439e-08
-4.00938e-08
-1.28955e-07
-1.04122e-10
8.87783e-08
-4.01014e-08
-1.28989e-07
-9.31959e-11
8.88249e-08
-4.01124e-08
-1.29036e-07
-7.89327e-11
8.88831e-08
-4.01266e-08
-1.29094e-07
-6.15322e-11
8.89515e-08
-4.01441e-08
-1.29162e-07
-4.12458e-11
8.9027e-08
-4.01643e-08
-1.29238e-07
-1.889e-11
8.91036e-08
-4.01867e-08
-1.29314e-07
4.04445e-12
8.91708e-08
-4.02096e-08
-1.29382e-07
2.46977e-11
8.92094e-08
-4.02303e-08
-1.2942e-07
3.86769e-11
8.9188e-08
-4.02443e-08
-1.29399e-07
3.88e-11
8.90551e-08
-4.02444e-08
-1.29266e-07
8.26779e-12
8.87078e-08
-4.02139e-08
-1.28918e-07
-1.0163e-10
8.79008e-08
-4.0104e-08
-1.28112e-07
-3.86484e-10
8.61755e-08
-3.98191e-08
-1.26386e-07
-8.75556e-10
8.33693e-08
-3.93301e-08
-1.2358e-07
-1.11183e-09
8.14006e-08
-3.90938e-08
-1.21611e-07
-9.27048e-10
8.10394e-08
-3.92786e-08
-1.2125e-07
-6.63475e-10
8.0922e-08
-3.95421e-08
-1.21133e-07
-3.93623e-10
8.07576e-08
-3.9812e-08
-1.20968e-07
-1.0222e-10
8.06132e-08
-4.01034e-08
-1.20824e-07
2.23023e-10
8.05432e-08
-4.04287e-08
-1.20754e-07
5.8578e-10
8.05632e-08
-4.07914e-08
-1.20774e-07
9.8822e-10
8.06776e-08
-4.11939e-08
-1.20888e-07
1.42755e-09
8.08752e-08
-4.16332e-08
-1.21086e-07
1.89551e-09
8.11307e-08
-4.21011e-08
-1.21341e-07
2.3835e-09
8.14239e-08
-4.25891e-08
-1.21635e-07
2.88426e-09
8.17403e-08
-4.30899e-08
-1.21951e-07
3.39195e-09
8.20678e-08
-4.35976e-08
-1.22278e-07
3.9003e-09
8.23949e-08
-4.41059e-08
-1.22606e-07
4.40172e-09
8.2711e-08
-4.46073e-08
-1.22922e-07
4.8883e-09
8.3005e-08
-4.50939e-08
-1.23216e-07
5.35146e-09
8.32653e-08
-4.55571e-08
-1.23476e-07
5.78159e-09
8.34786e-08
-4.59872e-08
-1.23689e-07
6.16769e-09
8.363e-08
-4.63733e-08
-1.23841e-07
6.49736e-09
8.37019e-08
-4.6703e-08
-1.23913e-07
6.75698e-09
8.36788e-08
-4.69626e-08
-1.23889e-07
6.93109e-09
8.35476e-08
-4.71367e-08
-1.23758e-07
7.00206e-09
8.32949e-08
-4.72077e-08
-1.23506e-07
6.95053e-09
8.29065e-08
-4.71561e-08
-1.23117e-07
6.75579e-09
8.2369e-08
-4.69614e-08
-1.2258e-07
6.3959e-09
8.1669e-08
-4.66015e-08
-1.2188e-07
5.84795e-09
8.07948e-08
-4.60535e-08
-1.21005e-07
5.08788e-09
7.97356e-08
-4.52935e-08
-1.19946e-07
4.09015e-09
7.84831e-08
-4.42958e-08
-1.18694e-07
2.82753e-09
7.70312e-08
-4.30332e-08
-1.17242e-07
1.27225e-09
7.53775e-08
-4.14779e-08
-1.15588e-07
-6.02695e-10
7.35219e-08
-3.96029e-08
-1.13733e-07
-2.82257e-09
7.14696e-08
-3.73831e-08
-1.1168e-07
-5.41009e-09
6.923e-08
-3.47956e-08
-1.09441e-07
-8.38416e-09
6.68197e-08
-3.18215e-08
-1.0703e-07
-1.17584e-08
6.4261e-08
-2.84473e-08
-1.04472e-07
-1.55391e-08
6.15827e-08
-2.46666e-08
-1.01793e-07
-1.9723e-08
5.88142e-08
-2.04827e-08
-9.90247e-08
-2.42924e-08
5.59871e-08
-1.59134e-08
-9.61976e-08
-2.92092e-08
5.31364e-08
-1.09966e-08
-9.33469e-08
-3.4411e-08
5.03012e-08
-5.79487e-09
-9.05116e-08
-3.98065e-08
4.7521e-08
-3.99373e-10
-8.77314e-08
-4.52716e-08
4.48368e-08
5.06561e-09
-8.50471e-08
-5.06432e-08
4.22849e-08
1.04372e-08
-8.24952e-08
-5.57107e-08
3.98919e-08
1.55046e-08
-8.01022e-08
-6.01868e-08
3.7656e-08
1.99807e-08
-7.78664e-08
-6.3656e-08
3.55273e-08
2.34499e-08
-7.57377e-08
-6.5612e-08
3.34018e-08
2.54057e-08
-7.36122e-08
-6.59036e-08
3.12024e-08
2.56973e-08
-7.14129e-08
-6.47829e-08
2.88359e-08
2.45766e-08
-6.90463e-08
-6.25051e-08
2.61219e-08
2.22988e-08
-6.63322e-08
-5.92656e-08
2.3161e-08
1.90593e-08
-6.33712e-08
-5.52687e-08
2.12799e-08
1.50624e-08
-6.149e-08
-5.07917e-08
2.20265e-08
1.05854e-08
-6.22363e-08
-4.59061e-08
1.56591e-08
5.69954e-09
-5.58687e-08
-3.98082e-08
-3.99825e-08
-3.97578e-10
-2.27522e-10
-3.32927e-08
-1.16429e-07
-6.91151e-09
7.62186e-08
-2.81615e-08
-1.55468e-07
-1.20422e-08
1.15257e-07
-2.45091e-08
-1.69118e-07
-1.5695e-08
1.28907e-07
-2.19492e-08
-1.72807e-07
-1.82554e-08
1.32597e-07
-2.02287e-08
-1.73214e-07
-1.99763e-08
1.33003e-07
-1.91572e-08
-1.72567e-07
-2.10478e-08
1.32357e-07
-1.84943e-08
-1.71528e-07
-2.17108e-08
1.31318e-07
-1.8079e-08
-1.70375e-07
-2.21261e-08
1.30164e-07
-1.78189e-08
-1.69231e-07
-2.23862e-08
1.2902e-07
-1.76572e-08
-1.6815e-07
-2.25479e-08
1.2794e-07
-1.75663e-08
-1.67151e-07
-2.26387e-08
1.2694e-07
-1.75256e-08
-1.66245e-07
-2.26794e-08
1.26034e-07
-1.75154e-08
-1.65449e-07
-2.26896e-08
1.25239e-07
-1.75207e-08
-1.64783e-07
-2.26843e-08
1.24572e-07
-1.75323e-08
-1.64264e-07
-2.26727e-08
1.24053e-07
-1.75457e-08
-1.63918e-07
-2.26593e-08
1.23708e-07
-1.75615e-08
-1.63763e-07
-2.26435e-08
1.23553e-07
)
;

boundaryField
{
    inlet
    {
        type            cyclic;
    }
    outlet
    {
        type            cyclic;
    }
    fixedWalls-bottom
    {
        type            zeroGradient;
    }
    fixedWalls-top
    {
        type            symmetry;
    }
    frontAndBack
    {
        type            empty;
    }
}


// ************************************************************************* //
