/*--------------------------------*- C++ -*----------------------------------*\
  =========                 |
  \\      /  F ield         | OpenFOAM: The Open Source CFD Toolbox
   \\    /   O peration     | Website:  https://openfoam.org
    \\  /    A nd           | Version:  10
     \\/     M anipulation  |
\*---------------------------------------------------------------------------*/
FoamFile
{
    format      ascii;
    class       volVectorField;
    location    "7500";
    object      U;
}
// * * * * * * * * * * * * * * * * * * * * * * * * * * * * * * * * * * * * * //

dimensions      [0 1 -1 0 0 0 0];

internalField   nonuniform List<vector> 
400
(
(0.00696654 -6.92729e-13 0)
(0.00696655 -3.45988e-12 0)
(0.00696655 7.12928e-13 0)
(0.00696654 3.45955e-12 0)
(0.0209333 -8.43839e-12 0)
(0.0209333 -4.02343e-11 0)
(0.0209333 8.49703e-12 0)
(0.0209333 4.0233e-11 0)
(0.0350305 -2.34681e-11 0)
(0.0350305 -1.10682e-10 0)
(0.0350305 2.35539e-11 0)
(0.0350305 1.1068e-10 0)
(0.0492581 -4.56994e-11 0)
(0.0492581 -2.13938e-10 0)
(0.0492581 4.58107e-11 0)
(0.0492581 2.13934e-10 0)
(0.0636158 -7.45149e-11 0)
(0.0636158 -3.46444e-10 0)
(0.0636158 7.465e-11 0)
(0.0636158 3.46439e-10 0)
(0.0781035 -1.09402e-10 0)
(0.0781036 -5.05031e-10 0)
(0.0781036 1.09558e-10 0)
(0.0781036 5.05025e-10 0)
(0.0927209 -1.4988e-10 0)
(0.092721 -6.86571e-10 0)
(0.092721 1.50055e-10 0)
(0.0927209 6.86565e-10 0)
(0.107468 -1.95437e-10 0)
(0.107468 -8.87635e-10 0)
(0.107468 1.95629e-10 0)
(0.107468 8.87627e-10 0)
(0.122343 -2.45513e-10 0)
(0.122343 -1.10442e-09 0)
(0.122343 2.4572e-10 0)
(0.122343 1.10442e-09 0)
(0.137347 -2.9951e-10 0)
(0.137347 -1.33278e-09 0)
(0.137347 2.9973e-10 0)
(0.137347 1.33277e-09 0)
(0.152479 -3.56785e-10 0)
(0.152479 -1.56819e-09 0)
(0.152479 3.57017e-10 0)
(0.152479 1.56818e-09 0)
(0.167738 -4.16658e-10 0)
(0.167738 -1.80576e-09 0)
(0.167738 4.16899e-10 0)
(0.167738 1.80575e-09 0)
(0.183124 -4.784e-10 0)
(0.183124 -2.04023e-09 0)
(0.183124 4.78651e-10 0)
(0.183124 2.04021e-09 0)
(0.198635 -5.41241e-10 0)
(0.198635 -2.26596e-09 0)
(0.198635 5.415e-10 0)
(0.198635 2.26595e-09 0)
(0.214271 -6.04362e-10 0)
(0.214271 -2.47698e-09 0)
(0.214271 6.04629e-10 0)
(0.214271 2.47697e-09 0)
(0.230031 -6.66904e-10 0)
(0.230031 -2.66705e-09 0)
(0.230031 6.67177e-10 0)
(0.230031 2.66704e-09 0)
(0.245914 -7.27967e-10 0)
(0.245914 -2.82977e-09 0)
(0.245914 7.28246e-10 0)
(0.245914 2.82976e-09 0)
(0.261918 -7.8663e-10 0)
(0.261918 -2.95886e-09 0)
(0.261918 7.86915e-10 0)
(0.261918 2.95884e-09 0)
(0.278043 -8.42e-10 0)
(0.278043 -3.04863e-09 0)
(0.278043 8.42291e-10 0)
(0.278043 3.04862e-09 0)
(0.294286 -8.93342e-10 0)
(0.294286 -3.09498e-09 0)
(0.294286 8.93638e-10 0)
(0.294286 3.09496e-09 0)
(0.310647 -9.40302e-10 0)
(0.310647 -3.09703e-09 0)
(0.310647 9.40601e-10 0)
(0.310647 3.097e-09 0)
(0.327123 -9.83234e-10 0)
(0.327123 -3.05969e-09 0)
(0.327123 9.83538e-10 0)
(0.327123 3.05967e-09 0)
(0.343712 -1.02361e-09 0)
(0.343712 -2.99736e-09 0)
(0.343712 1.02392e-09 0)
(0.343712 2.99734e-09 0)
(0.360412 -1.06549e-09 0)
(0.360412 -2.94281e-09 0)
(0.360412 1.06581e-09 0)
(0.360412 2.94278e-09 0)
(0.37722 -1.12219e-09 0)
(0.37722 -2.97605e-09 0)
(0.37722 1.12251e-09 0)
(0.37722 2.97602e-09 0)
(0.394132 -1.23018e-09 0)
(0.394132 -3.29063e-09 0)
(0.394132 1.23049e-09 0)
(0.394132 3.2906e-09 0)
(0.411143 -1.4557e-09 0)
(0.411143 -4.20773e-09 0)
(0.411143 1.45602e-09 0)
(0.411143 4.2077e-09 0)
(0.428249 -1.72026e-09 0)
(0.42825 -5.44651e-09 0)
(0.42825 1.72058e-09 0)
(0.42825 5.44648e-09 0)
(0.445452 -2.05135e-09 0)
(0.445452 -7.13872e-09 0)
(0.445452 2.05168e-09 0)
(0.445452 7.13869e-09 0)
(0.462751 -2.33121e-09 0)
(0.462751 -8.79822e-09 0)
(0.462751 2.33153e-09 0)
(0.462751 8.79819e-09 0)
(0.480142 -2.56089e-09 0)
(0.480143 -1.04143e-08 0)
(0.480143 2.56122e-09 0)
(0.480142 1.04143e-08 0)
(0.497624 -2.7474e-09 0)
(0.497624 -1.19978e-08 0)
(0.497624 2.74772e-09 0)
(0.497624 1.19978e-08 0)
(0.515193 -2.89174e-09 0)
(0.515193 -1.35319e-08 0)
(0.515193 2.89207e-09 0)
(0.515193 1.35318e-08 0)
(0.532846 -2.99213e-09 0)
(0.532846 -1.49856e-08 0)
(0.532846 2.99246e-09 0)
(0.532846 1.49856e-08 0)
(0.55058 -3.04583e-09 0)
(0.55058 -1.63241e-08 0)
(0.55058 3.04616e-09 0)
(0.55058 1.63241e-08 0)
(0.568391 -3.05071e-09 0)
(0.568391 -1.75148e-08 0)
(0.568391 3.05104e-09 0)
(0.568391 1.75148e-08 0)
(0.586276 -3.00481e-09 0)
(0.586277 -1.85266e-08 0)
(0.586276 3.00514e-09 0)
(0.586277 1.85265e-08 0)
(0.604231 -2.90782e-09 0)
(0.604231 -1.93345e-08 0)
(0.604231 2.90816e-09 0)
(0.604231 1.93345e-08 0)
(0.622252 -2.76047e-09 0)
(0.622252 -1.99181e-08 0)
(0.622252 2.7608e-09 0)
(0.622252 1.9918e-08 0)
(0.640335 -2.56369e-09 0)
(0.640335 -2.02597e-08 0)
(0.640335 2.56402e-09 0)
(0.640335 2.02597e-08 0)
(0.658475 -2.31842e-09 0)
(0.658475 -2.03445e-08 0)
(0.658475 2.31875e-09 0)
(0.658475 2.03445e-08 0)
(0.676667 -2.02498e-09 0)
(0.676667 -2.016e-08 0)
(0.676667 2.0253e-09 0)
(0.676667 2.01599e-08 0)
(0.694907 -1.68314e-09 0)
(0.694907 -1.9696e-08 0)
(0.694907 1.68347e-09 0)
(0.694907 1.9696e-08 0)
(0.713189 -1.29186e-09 0)
(0.713189 -1.89453e-08 0)
(0.713189 1.29218e-09 0)
(0.713189 1.89452e-08 0)
(0.731509 -8.48938e-10 0)
(0.731509 -1.79033e-08 0)
(0.731509 8.49263e-10 0)
(0.731509 1.79033e-08 0)
(0.749861 -3.51034e-10 0)
(0.749861 -1.65696e-08 0)
(0.74986 3.51358e-10 0)
(0.749861 1.65695e-08 0)
(0.768238 2.06436e-10 0)
(0.768238 -1.49482e-08 0)
(0.768238 -2.06114e-10 0)
(0.768238 1.49481e-08 0)
(0.786635 8.29352e-10 0)
(0.786635 -1.30477e-08 0)
(0.786635 -8.29032e-10 0)
(0.786635 1.30476e-08 0)
(0.805046 1.52457e-09 0)
(0.805046 -1.08816e-08 0)
(0.805046 -1.52425e-09 0)
(0.805046 1.08816e-08 0)
(0.823464 2.29981e-09 0)
(0.823463 -8.468e-09 0)
(0.823463 -2.29949e-09 0)
(0.823464 8.46795e-09 0)
(0.841881 3.16308e-09 0)
(0.841881 -5.82971e-09 0)
(0.841881 -3.16277e-09 0)
(0.841881 5.82966e-09 0)
(0.860292 4.12233e-09 0)
(0.860292 -2.9953e-09 0)
(0.860292 -4.12202e-09 0)
(0.860292 2.99525e-09 0)
(0.878688 5.1849e-09 0)
(0.878688 6.75773e-13 0)
(0.878688 -5.18459e-09 0)
(0.878688 -7.25026e-13 0)
(0.897063 6.357e-09 0)
(0.897063 3.11725e-09 0)
(0.897062 -6.3567e-09 0)
(0.897063 -3.1173e-09 0)
(0.915407 7.64285e-09 0)
(0.915407 6.30675e-09 0)
(0.915406 -7.64255e-09 0)
(0.915407 -6.3068e-09 0)
(0.933712 9.0434e-09 0)
(0.933712 9.5146e-09 0)
(0.933712 -9.0431e-09 0)
(0.933712 -9.51465e-09 0)
(0.951971 1.05547e-08 0)
(0.951971 1.26793e-08 0)
(0.951971 -1.05544e-08 0)
(0.951971 -1.26794e-08 0)
(0.970174 1.21661e-08 0)
(0.970174 1.57327e-08 0)
(0.970173 -1.21658e-08 0)
(0.970174 -1.57327e-08 0)
(0.988311 1.38579e-08 0)
(0.988311 1.86e-08 0)
(0.988311 -1.38577e-08 0)
(0.988311 -1.86001e-08 0)
(1.00637 1.55999e-08 0)
(1.00637 2.12012e-08 0)
(1.00637 -1.55996e-08 0)
(1.00637 -2.12012e-08 0)
(1.02435 1.73484e-08 0)
(1.02435 2.34516e-08 0)
(1.02435 -1.73481e-08 0)
(1.02435 -2.34516e-08 0)
(1.04223 1.90439e-08 0)
(1.04223 2.52649e-08 0)
(1.04223 -1.90436e-08 0)
(1.04223 -2.52649e-08 0)
(1.06001 2.06085e-08 0)
(1.06001 2.65559e-08 0)
(1.06001 -2.06083e-08 0)
(1.06001 -2.6556e-08 0)
(1.07767 2.19431e-08 0)
(1.07767 2.72447e-08 0)
(1.07767 -2.19428e-08 0)
(1.07767 -2.72447e-08 0)
(1.0952 2.29246e-08 0)
(1.0952 2.72595e-08 0)
(1.0952 -2.29244e-08 0)
(1.0952 -2.72596e-08 0)
(1.11259 2.34054e-08 0)
(1.11259 2.65427e-08 0)
(1.11259 -2.34052e-08 0)
(1.11259 -2.65428e-08 0)
(1.12982 2.32134e-08 0)
(1.12982 2.50562e-08 0)
(1.12982 -2.32132e-08 0)
(1.12982 -2.50562e-08 0)
(1.14689 2.21546e-08 0)
(1.14689 2.27907e-08 0)
(1.14689 -2.21544e-08 0)
(1.14689 -2.27907e-08 0)
(1.16378 2.0019e-08 0)
(1.16378 1.97766e-08 0)
(1.16378 -2.00188e-08 0)
(1.16378 -1.97767e-08 0)
(1.18048 1.6589e-08 0)
(1.18048 1.60969e-08 0)
(1.18048 -1.65887e-08 0)
(1.18048 -1.6097e-08 0)
(1.19697 1.16523e-08 0)
(1.19697 1.19014e-08 0)
(1.19697 -1.16521e-08 0)
(1.19697 -1.19015e-08 0)
(1.21324 5.02254e-09 0)
(1.21324 7.42156e-09 0)
(1.21324 -5.02232e-09 0)
(1.21324 -7.42161e-09 0)
(1.22927 -3.42556e-09 0)
(1.22927 2.98126e-09 0)
(1.22927 3.42577e-09 0)
(1.22927 -2.98131e-09 0)
(1.24505 -1.36832e-08 0)
(1.24505 -1.00276e-09 0)
(1.24505 1.36834e-08 0)
(1.24505 1.00271e-09 0)
(1.26056 -2.5509e-08 0)
(1.26056 -4.03138e-09 0)
(1.26056 2.55092e-08 0)
(1.26056 4.03133e-09 0)
(1.27578 -3.85868e-08 0)
(1.27578 -5.48946e-09 0)
(1.27578 3.8587e-08 0)
(1.27578 5.4894e-09 0)
(1.2907 -5.24691e-08 0)
(1.2907 -4.69639e-09 0)
(1.2907 5.24692e-08 0)
(1.2907 4.69633e-09 0)
(1.3053 -6.67546e-08 0)
(1.3053 -9.11448e-10 0)
(1.3053 6.67548e-08 0)
(1.3053 9.11396e-10 0)
(1.31956 -8.09952e-08 0)
(1.31956 6.71073e-09 0)
(1.31956 8.09954e-08 0)
(1.31956 -6.71078e-09 0)
(1.33346 -9.46115e-08 0)
(1.33346 1.97355e-08 0)
(1.33346 9.46116e-08 0)
(1.33346 -1.97356e-08 0)
(1.34699 -1.06822e-07 0)
(1.34699 4.13386e-08 0)
(1.34698 1.06822e-07 0)
(1.34698 -4.13387e-08 0)
(1.36011 -1.16398e-07 0)
(1.3601 7.32039e-08 0)
(1.3601 1.16398e-07 0)
(1.3601 -7.3204e-08 0)
(1.37281 -1.20737e-07 0)
(1.37281 8.57046e-08 0)
(1.37281 1.20737e-07 0)
(1.37281 -8.57046e-08 0)
(1.38511 -1.18408e-07 0)
(1.38511 9.06538e-08 0)
(1.38511 1.18408e-07 0)
(1.38511 -9.06539e-08 0)
(1.39695 -1.09031e-07 0)
(1.39695 6.74578e-08 0)
(1.39695 1.09031e-07 0)
(1.39695 -6.74579e-08 0)
(1.40829 -9.48245e-08 0)
(1.40829 3.8621e-08 0)
(1.40829 9.48246e-08 0)
(1.40829 -3.8621e-08 0)
(1.41912 -7.8199e-08 0)
(1.41912 1.4328e-08 0)
(1.41912 7.81991e-08 0)
(1.41912 -1.4328e-08 0)
(1.42938 -6.11599e-08 0)
(1.42938 -3.4125e-09 0)
(1.42938 6.116e-08 0)
(1.42938 3.41246e-09 0)
(1.43906 -4.50999e-08 0)
(1.43906 -1.50201e-08 0)
(1.43906 4.51e-08 0)
(1.43906 1.502e-08 0)
(1.44812 -3.09393e-08 0)
(1.44812 -2.16699e-08 0)
(1.44812 3.09394e-08 0)
(1.44812 2.16699e-08 0)
(1.45654 -1.91463e-08 0)
(1.45654 -2.45444e-08 0)
(1.45654 1.91463e-08 0)
(1.45654 2.45444e-08 0)
(1.46427 -9.84673e-09 0)
(1.46427 -2.47342e-08 0)
(1.46427 9.8468e-09 0)
(1.46427 2.47342e-08 0)
(1.47129 -2.95638e-09 0)
(1.47129 -2.31492e-08 0)
(1.47129 2.95644e-09 0)
(1.47129 2.31492e-08 0)
(1.47756 1.74707e-09 0)
(1.47756 -2.05035e-08 0)
(1.47756 -1.74702e-09 0)
(1.47756 2.05035e-08 0)
(1.48305 4.55611e-09 0)
(1.48305 -1.73202e-08 0)
(1.48305 -4.55606e-09 0)
(1.48305 1.73201e-08 0)
(1.48772 5.79018e-09 0)
(1.48772 -1.39526e-08 0)
(1.48772 -5.79014e-09 0)
(1.48772 1.39526e-08 0)
(1.49153 5.76947e-09 0)
(1.49153 -1.0615e-08 0)
(1.49153 -5.76944e-09 0)
(1.49153 1.06149e-08 0)
(1.49446 4.7978e-09 0)
(1.49446 -7.41017e-09 0)
(1.49446 -4.79778e-09 0)
(1.49446 7.41015e-09 0)
(1.49644 3.15508e-09 0)
(1.49644 -4.36179e-09 0)
(1.49644 -3.15508e-09 0)
(1.49644 4.36178e-09 0)
(1.49746 1.09543e-09 0)
(1.49746 -1.44071e-09 0)
(1.49746 -1.09542e-09 0)
(1.49746 1.44071e-09 0)
)
;

boundaryField
{
    inlet
    {
        type            cyclic;
    }
    outlet
    {
        type            cyclic;
    }
    fixedWalls-bottom
    {
        type            noSlip;
    }
    fixedWalls-top
    {
        type            symmetry;
    }
    frontAndBack
    {
        type            empty;
    }
}


// ************************************************************************* //
