/*--------------------------------*- C++ -*----------------------------------*\
  =========                 |
  \\      /  F ield         | OpenFOAM: The Open Source CFD Toolbox
   \\    /   O peration     | Website:  https://openfoam.org
    \\  /    A nd           | Version:  10
     \\/     M anipulation  |
\*---------------------------------------------------------------------------*/
FoamFile
{
    format      ascii;
    class       volScalarField;
    location    "167";
    object      k;
}
// * * * * * * * * * * * * * * * * * * * * * * * * * * * * * * * * * * * * * //

dimensions      [0 2 -2 0 0 0 0];

internalField   nonuniform List<scalar> 
200
(
2.22045e-16
2.22045e-16
2.22045e-16
2.22045e-16
2.22045e-16
2.22045e-16
2.22045e-16
2.22045e-16
3.41918e-16
3.42097e-16
3.41669e-16
3.41683e-16
1.20339e-15
1.20403e-15
1.20248e-15
1.20253e-15
3.06855e-15
3.07021e-15
3.06619e-15
3.06633e-15
6.42964e-15
6.43314e-15
6.42454e-15
6.42488e-15
1.18504e-14
1.18569e-14
1.18406e-14
1.18413e-14
1.99675e-14
1.99783e-14
1.99499e-14
1.99514e-14
3.14871e-14
3.15042e-14
3.14575e-14
3.14603e-14
4.71742e-14
4.72e-14
4.71264e-14
4.71318e-14
6.7833e-14
6.78706e-14
6.77584e-14
6.77685e-14
9.42847e-14
9.4338e-14
9.41712e-14
9.419e-14
1.27346e-13
1.27419e-13
1.27176e-13
1.27211e-13
1.67805e-13
1.67904e-13
1.67555e-13
1.67619e-13
2.164e-13
2.16526e-13
2.16032e-13
2.16148e-13
2.73785e-13
2.73938e-13
2.73243e-13
2.73454e-13
3.40505e-13
3.40674e-13
3.39705e-13
3.40078e-13
4.16955e-13
4.17124e-13
4.15784e-13
4.16416e-13
5.03356e-13
5.03498e-13
5.01655e-13
5.02693e-13
5.99724e-13
5.99799e-13
5.97277e-13
5.98933e-13
7.05847e-13
7.05794e-13
7.02359e-13
7.04938e-13
8.21171e-13
8.20874e-13
8.16345e-13
8.20286e-13
9.44935e-13
9.44269e-13
9.38409e-13
9.44323e-13
1.07611e-12
1.07493e-12
1.06745e-12
1.07585e-12
1.21339e-12
1.21154e-12
1.20209e-12
1.21331e-12
1.35521e-12
1.35259e-12
1.34073e-12
1.35492e-12
1.4998e-12
1.49577e-12
1.48157e-12
1.49845e-12
1.64572e-12
1.63941e-12
1.62243e-12
1.64108e-12
1.78727e-12
1.78262e-12
1.76093e-12
1.78261e-12
1.92105e-12
1.92282e-12
1.89469e-12
1.92098e-12
2.04867e-12
2.05561e-12
2.02133e-12
2.05507e-12
2.16664e-12
2.1761e-12
2.13874e-12
2.17701e-12
2.27177e-12
2.28095e-12
2.24468e-12
2.28457e-12
2.36203e-12
2.3651e-12
2.33744e-12
2.37505e-12
2.43754e-12
2.43652e-12
2.41372e-12
2.44639e-12
2.49231e-12
2.49252e-12
2.4724e-12
2.49414e-12
2.52988e-12
2.53066e-12
2.51281e-12
2.52886e-12
2.54993e-12
2.55062e-12
2.53466e-12
2.54789e-12
2.55264e-12
2.55289e-12
2.53826e-12
2.55023e-12
2.53888e-12
2.53864e-12
2.52462e-12
2.53622e-12
2.5104e-12
2.50962e-12
2.49538e-12
2.5074e-12
2.47005e-12
2.46839e-12
2.45256e-12
2.46682e-12
2.42205e-12
2.41821e-12
2.3987e-12
2.41959e-12
2.37221e-12
2.36361e-12
2.33661e-12
2.37448e-12
2.29481e-12
2.31392e-12
2.26874e-12
2.31419e-12
2.22325e-12
2.26059e-12
2.2e-12
2.24693e-12
2.15491e-12
2.20146e-12
2.13611e-12
2.17317e-12
2.09495e-12
2.14418e-12
2.08176e-12
2.09445e-12
2.04358e-12
2.09502e-12
2.04375e-12
2.03037e-12
2.00494e-12
2.05946e-12
2.03214e-12
1.98881e-12
)
;

boundaryField
{
    inlet
    {
        type            cyclic;
    }
    outlet
    {
        type            cyclic;
    }
    fixedWalls-bottom
    {
        type            kqRWallFunction;
        value           uniform 2.22045e-16;
    }
    fixedWalls-top
    {
        type            symmetry;
    }
    frontAndBack
    {
        type            empty;
    }
}


// ************************************************************************* //
