/*--------------------------------*- C++ -*----------------------------------*\
  =========                 |
  \\      /  F ield         | OpenFOAM: The Open Source CFD Toolbox
   \\    /   O peration     | Website:  https://openfoam.org
    \\  /    A nd           | Version:  10
     \\/     M anipulation  |
\*---------------------------------------------------------------------------*/
FoamFile
{
    format      ascii;
    class       volScalarField;
    location    "167";
    object      nut;
}
// * * * * * * * * * * * * * * * * * * * * * * * * * * * * * * * * * * * * * //

dimensions      [0 2 -1 0 0 0 0];

internalField   nonuniform List<scalar> 
200
(
5.41801e-21
5.41801e-21
5.41801e-21
5.41801e-21
3.33248e-20
3.33248e-20
3.33248e-20
3.33248e-20
1.57753e-19
1.57836e-19
1.57638e-19
1.57645e-19
1.21182e-18
1.21248e-18
1.21091e-18
1.21097e-18
5.56428e-18
5.5674e-18
5.56016e-18
5.56038e-18
1.85875e-17
1.85987e-17
1.85741e-17
1.85749e-17
5.03025e-17
5.03352e-17
5.02672e-17
5.02695e-17
1.17517e-16
1.17598e-16
1.17434e-16
1.1744e-16
2.46665e-16
2.46839e-16
2.4648e-16
2.46499e-16
4.77522e-16
4.77866e-16
4.77134e-16
4.77183e-16
8.67143e-16
8.67777e-16
8.66375e-16
8.66495e-16
1.49336e-15
1.49448e-15
1.49193e-15
1.49221e-15
2.45814e-15
2.46003e-15
2.45559e-15
2.45624e-15
3.89015e-15
3.89327e-15
3.88582e-15
3.88729e-15
5.9459e-15
5.95085e-15
5.93875e-15
5.94205e-15
8.80863e-15
8.81606e-15
8.79697e-15
8.80416e-15
1.26843e-14
1.26949e-14
1.26654e-14
1.26805e-14
1.77945e-14
1.78088e-14
1.77639e-14
1.77942e-14
2.43667e-14
2.43849e-14
2.4317e-14
2.43752e-14
3.26223e-14
3.26433e-14
3.25407e-14
3.26481e-14
4.27637e-14
4.27844e-14
4.26283e-14
4.282e-14
5.49557e-14
5.49677e-14
5.47368e-14
5.50688e-14
6.93235e-14
6.93141e-14
6.89787e-14
6.95338e-14
8.59424e-14
8.58941e-14
8.54141e-14
8.62838e-14
1.04834e-13
1.04725e-13
1.0405e-13
1.05321e-13
1.25963e-13
1.25775e-13
1.24844e-13
1.26584e-13
1.49245e-13
1.48901e-13
1.47698e-13
1.49937e-13
1.74607e-13
1.73989e-13
1.72447e-13
1.75137e-13
2.01479e-13
2.00991e-13
1.9887e-13
2.02194e-13
2.29448e-13
2.29684e-13
2.26703e-13
2.3092e-13
2.58671e-13
2.59561e-13
2.55666e-13
2.61222e-13
2.887e-13
2.89959e-13
2.85479e-13
2.92107e-13
3.19056e-13
3.20344e-13
3.15799e-13
3.2318e-13
3.49361e-13
3.49869e-13
3.46298e-13
3.53926e-13
3.79502e-13
3.7947e-13
3.76395e-13
3.83839e-13
4.08359e-13
4.08455e-13
4.05865e-13
4.11907e-13
4.36228e-13
4.36286e-13
4.34472e-13
4.39528e-13
4.62817e-13
4.62872e-13
4.61309e-13
4.66236e-13
4.87833e-13
4.87832e-13
4.86173e-13
4.91551e-13
5.11023e-13
5.11254e-13
5.08854e-13
5.15154e-13
5.3222e-13
5.3216e-13
5.30286e-13
5.36644e-13
5.51486e-13
5.52079e-13
5.49359e-13
5.56327e-13
5.69203e-13
5.69102e-13
5.65911e-13
5.75071e-13
5.85623e-13
5.86304e-13
5.7903e-13
5.94196e-13
5.95151e-13
6.02311e-13
5.90795e-13
6.08125e-13
6.04927e-13
6.14505e-13
6.01327e-13
6.17924e-13
6.1123e-13
6.2375e-13
6.09015e-13
6.23127e-13
6.15675e-13
6.29574e-13
6.14271e-13
6.22796e-13
6.17225e-13
6.32671e-13
6.18382e-13
6.21363e-13
6.15735e-13
6.3432e-13
6.2536e-13
6.19531e-13
)
;

boundaryField
{
    inlet
    {
        type            cyclic;
    }
    outlet
    {
        type            cyclic;
    }
    fixedWalls-bottom
    {
        type            nutkWallFunction;
        Cmu             0.09;
        kappa           0.41;
        E               9.8;
        value           uniform 0;
    }
    fixedWalls-top
    {
        type            symmetry;
    }
    frontAndBack
    {
        type            empty;
    }
}


// ************************************************************************* //
