/*--------------------------------*- C++ -*----------------------------------*\
  =========                 |
  \\      /  F ield         | OpenFOAM: The Open Source CFD Toolbox
   \\    /   O peration     | Website:  https://openfoam.org
    \\  /    A nd           | Version:  10
     \\/     M anipulation  |
\*---------------------------------------------------------------------------*/
FoamFile
{
    format      ascii;
    class       volScalarField;
    location    "167";
    object      omega;
}
// * * * * * * * * * * * * * * * * * * * * * * * * * * * * * * * * * * * * * //

dimensions      [0 0 -1 0 0 0 0];

internalField   nonuniform List<scalar> 
200
(
40982.7
40982.7
40982.7
40982.7
6663.04
6663.04
6663.03
6663.04
2167.43
2167.43
2167.43
2167.43
993.04
993.036
993.034
993.036
551.473
551.462
551.457
551.461
345.913
345.892
345.886
345.89
235.583
235.558
235.553
235.556
169.911
169.887
169.883
169.885
127.652
127.63
127.627
127.629
98.7897
98.7725
98.7697
98.7709
78.2259
78.212
78.209
78.2099
63.1357
63.1243
63.1204
63.1211
51.8057
51.7958
51.7905
51.7909
43.1359
43.1267
43.1197
43.1197
36.3947
36.3858
36.3767
36.376
31.0815
31.0726
31.061
31.0596
26.8447
26.8355
26.8216
26.8189
23.4317
23.4223
23.4061
23.4018
20.6575
20.648
20.6298
20.6232
18.3838
18.3743
18.3548
18.3451
16.5058
16.4965
16.4764
16.4628
14.9424
14.9338
14.914
14.8957
13.6308
13.623
13.6043
13.5808
12.5213
12.5145
12.4973
12.4687
11.5744
11.5687
11.553
11.5201
10.7588
10.7541
10.7392
10.7037
10.0492
10.0454
10.031
9.99387
9.42527
9.42254
9.40827
9.37025
8.87073
8.86913
8.85472
8.81634
8.37246
8.37159
8.35758
8.31884
7.91997
7.91955
7.90615
7.86714
7.50483
7.50485
7.49176
7.45279
7.12029
7.12032
7.10793
7.06905
6.76101
6.75995
6.7498
6.7106
6.42298
6.42083
6.41273
6.37347
6.10324
6.10232
6.09168
6.0551
5.79945
5.80048
5.7836
5.75358
5.50958
5.51042
5.49448
5.46481
5.23261
5.23314
5.22089
5.18814
4.96822
4.96552
4.96138
4.92322
4.71685
4.71592
4.70572
4.67238
4.4789
4.47109
4.46441
4.43411
4.25515
4.24917
4.23866
4.20746
4.05075
4.03137
4.03539
3.99613
3.85584
3.84174
3.84015
3.80546
3.67524
3.67872
3.65857
3.63626
3.52554
3.5294
3.50749
3.48752
3.40268
3.40577
3.38899
3.36297
3.31091
3.31138
3.30499
3.26761
3.25617
3.24673
3.24954
3.21018
)
;

boundaryField
{
    inlet
    {
        type            cyclic;
    }
    outlet
    {
        type            cyclic;
    }
    fixedWalls-bottom
    {
        beta1           0.075;
        blended         0;
        type            omegaWallFunction;
        value           nonuniform List<scalar> 4(40982.7 40982.7 40982.7 40982.7);
    }
    fixedWalls-top
    {
        type            symmetry;
    }
    frontAndBack
    {
        type            empty;
    }
}


// ************************************************************************* //
