/*--------------------------------*- C++ -*----------------------------------*\
  =========                 |
  \\      /  F ield         | OpenFOAM: The Open Source CFD Toolbox
   \\    /   O peration     | Website:  https://openfoam.org
    \\  /    A nd           | Version:  10
     \\/     M anipulation  |
\*---------------------------------------------------------------------------*/
FoamFile
{
    format      ascii;
    class       volScalarField;
    location    "167";
    object      p;
}
// * * * * * * * * * * * * * * * * * * * * * * * * * * * * * * * * * * * * * //

dimensions      [0 2 -2 0 0 0 0];

internalField   nonuniform List<scalar> 
200
(
-2.45164e-10
5.88495e-07
-1.69106e-07
-7.58389e-07
-7.35484e-10
5.87292e-07
-1.68558e-07
-7.57152e-07
-1.35386e-09
5.85932e-07
-1.68026e-07
-7.5577e-07
-2.10929e-09
5.84972e-07
-1.67457e-07
-7.54789e-07
-2.75483e-09
5.84234e-07
-1.66961e-07
-7.54022e-07
-3.44016e-09
5.83858e-07
-1.66401e-07
-7.53606e-07
-4.0057e-09
5.83627e-07
-1.65943e-07
-7.53333e-07
-4.59831e-09
5.8375e-07
-1.65449e-07
-7.53403e-07
-5.04459e-09
5.83984e-07
-1.65097e-07
-7.53593e-07
-5.48667e-09
5.84537e-07
-1.64745e-07
-7.54089e-07
-5.74758e-09
5.85133e-07
-1.64571e-07
-7.54642e-07
-5.95906e-09
5.85959e-07
-1.64442e-07
-7.55411e-07
-5.94696e-09
5.86713e-07
-1.64532e-07
-7.56129e-07
-5.83406e-09
5.87539e-07
-1.6472e-07
-7.569e-07
-5.45348e-09
5.88111e-07
-1.65169e-07
-7.57443e-07
-4.92139e-09
5.88522e-07
-1.65768e-07
-7.57803e-07
-4.08142e-09
5.88417e-07
-1.66665e-07
-7.57677e-07
-3.04328e-09
5.87812e-07
-1.67763e-07
-7.57026e-07
-1.66504e-09
5.86329e-07
-1.69186e-07
-7.55531e-07
-5.53865e-11
5.83907e-07
-1.70848e-07
-7.53068e-07
1.9128e-09
5.8014e-07
-1.72851e-07
-7.49296e-07
4.13404e-09
5.74863e-07
-1.75114e-07
-7.43986e-07
6.71667e-09
5.67654e-07
-1.7772e-07
-7.36781e-07
9.55511e-09
5.58262e-07
-1.80592e-07
-7.27361e-07
1.27414e-08
5.46244e-07
-1.83795e-07
-7.15352e-07
1.61773e-08
5.31253e-07
-1.87253e-07
-7.00341e-07
1.99365e-08
5.12855e-07
-1.91021e-07
-6.81958e-07
2.39296e-08
4.90638e-07
-1.95027e-07
-6.59728e-07
2.82182e-08
4.64193e-07
-1.99322e-07
-6.33302e-07
3.27302e-08
4.33072e-07
-2.03839e-07
-6.02176e-07
3.75179e-08
3.96938e-07
-2.08631e-07
-5.66063e-07
4.25296e-08
3.5536e-07
-2.13642e-07
-5.24488e-07
4.7817e-08
3.08124e-07
-2.18934e-07
-4.77276e-07
5.33488e-08
2.54903e-07
-2.24465e-07
-4.24063e-07
5.91829e-08
1.95658e-07
-2.30308e-07
-3.64845e-07
6.53061e-08
1.30264e-07
-2.36434e-07
-2.99466e-07
7.17851e-08
5.89347e-08
-2.42924e-07
-2.28169e-07
7.86127e-08
-1.81251e-08
-2.49769e-07
-1.51128e-07
8.58618e-08
-1.00373e-07
-2.57037e-07
-6.89195e-08
9.3512e-08
-1.87155e-07
-2.64727e-07
1.78465e-08
1.01629e-07
-2.77489e-07
-2.7288e-07
1.08137e-07
1.10155e-07
-3.70142e-07
-2.81477e-07
2.00777e-07
1.19096e-07
-4.63552e-07
-2.90481e-07
2.94143e-07
1.2829e-07
-5.558e-07
-2.9978e-07
3.86378e-07
1.37619e-07
-6.44664e-07
-3.0921e-07
4.75204e-07
1.46904e-07
-7.27542e-07
-3.18616e-07
5.58055e-07
1.56005e-07
-8.01141e-07
-3.2783e-07
6.31613e-07
1.64314e-07
-8.6079e-07
-3.36236e-07
6.91221e-07
1.70397e-07
-9.01701e-07
-3.42378e-07
7.32088e-07
1.737e-07
-9.26195e-07
-3.45727e-07
7.56548e-07
)
;

boundaryField
{
    inlet
    {
        type            cyclic;
    }
    outlet
    {
        type            cyclic;
    }
    fixedWalls-bottom
    {
        type            zeroGradient;
    }
    fixedWalls-top
    {
        type            symmetry;
    }
    frontAndBack
    {
        type            empty;
    }
}


// ************************************************************************* //
