/*--------------------------------*- C++ -*----------------------------------*\
  =========                 |
  \\      /  F ield         | OpenFOAM: The Open Source CFD Toolbox
   \\    /   O peration     | Website:  https://openfoam.org
    \\  /    A nd           | Version:  10
     \\/     M anipulation  |
\*---------------------------------------------------------------------------*/
FoamFile
{
    format      ascii;
    class       surfaceScalarField;
    location    "167";
    object      phi;
}
// * * * * * * * * * * * * * * * * * * * * * * * * * * * * * * * * * * * * * //

dimensions      [0 3 -1 0 0 0 0];

internalField   nonuniform List<scalar> 
346
(
0.000255121
3.12565e-10
0.000255122
-8.11762e-10
0.000255122
1.80793e-10
8.08816e-10
0.000789959
-3.83234e-10
0.000789961
-2.99969e-09
0.00078996
7.69646e-10
2.99758e-09
0.00136551
-1.53739e-09
0.00136552
-6.3048e-09
0.00136552
1.88485e-09
6.30502e-09
0.00198395
-3.22845e-09
0.00198395
-1.06437e-08
0.00198395
3.50087e-09
1.0648e-08
0.0026475
-5.46855e-09
0.00264751
-1.5781e-08
0.00264751
5.72146e-09
1.57874e-08
0.0033585
-8.31529e-09
0.0033585
-2.16058e-08
0.0033585
8.51306e-09
2.162e-08
0.00411932
-1.18332e-08
0.00411933
-2.78155e-08
0.00411932
1.20227e-08
2.78314e-08
0.00493244
-1.60849e-08
0.00493245
-3.42641e-08
0.00493245
1.62302e-08
3.42918e-08
0.00580041
-2.1179e-08
0.00580041
-4.06024e-08
0.00580041
2.13235e-08
4.06291e-08
0.00672581
-2.71973e-08
0.00672582
-4.66644e-08
0.00672581
2.73031e-08
4.67067e-08
0.00771134
-3.42854e-08
0.00771135
-5.20798e-08
0.00771134
3.4395e-08
5.2119e-08
0.00875973
-4.25508e-08
0.00875974
-5.66843e-08
0.00875973
4.26237e-08
5.67434e-08
0.00987376
-5.21648e-08
0.00987377
-6.01183e-08
0.00987376
5.22461e-08
6.01696e-08
0.0110563
-6.32594e-08
0.0110563
-6.2248e-08
0.0110563
6.33041e-08
6.23233e-08
0.0123102
-7.60149e-08
0.0123102
-6.27568e-08
0.0123101
7.60712e-08
6.28208e-08
0.0136383
-9.05724e-08
0.0136383
-6.15718e-08
0.0136383
9.05906e-08
6.16644e-08
0.0150436
-1.07095e-07
0.0150436
-5.84484e-08
0.0150436
1.07129e-07
5.85237e-08
0.0165291
-1.25712e-07
0.0165291
-5.34013e-08
0.016529
1.25706e-07
5.35097e-08
0.0180975
-1.46538e-07
0.0180975
-4.62789e-08
0.0180975
1.46553e-07
4.63653e-08
0.0197519
-1.69658e-07
0.0197519
-3.72011e-08
0.0197519
1.69629e-07
3.73254e-08
0.0214951
-1.95101e-07
0.0214951
-2.61181e-08
0.0214951
1.95098e-07
2.62131e-08
0.0233298
-2.22877e-07
0.0233298
-1.32612e-08
0.0233298
2.22829e-07
1.33986e-08
0.0252587
-2.52899e-07
0.0252587
1.32159e-09
0.0252587
2.5288e-07
-1.21932e-09
0.0272844
-2.85069e-07
0.0272843
1.72958e-08
0.0272843
2.85002e-07
-1.71467e-08
0.0294091
-3.19157e-07
0.0294091
3.45314e-08
0.0294091
3.19126e-07
-3.44259e-08
0.0316352
-3.54943e-07
0.0316351
5.261e-08
0.0316351
3.54861e-07
-5.24534e-08
0.0339644
-3.92037e-07
0.0339644
7.1343e-08
0.0339644
3.91997e-07
-7.12371e-08
0.0363986
-4.30087e-07
0.0363986
9.02539e-08
0.0363985
4.29994e-07
-9.00924e-08
0.0389389
-4.68544e-07
0.0389389
1.09123e-07
0.0389388
4.68504e-07
-1.09025e-07
0.0415862
-5.06931e-07
0.0415862
1.27447e-07
0.0415862
5.06835e-07
-1.27289e-07
0.044341
-5.4455e-07
0.044341
1.45003e-07
0.044341
5.44515e-07
-1.44918e-07
0.0472031
-5.80809e-07
0.0472031
1.61288e-07
0.0472031
5.80715e-07
-1.61138e-07
0.0501717
-6.14882e-07
0.0501717
1.761e-07
0.0501717
6.1486e-07
-1.76036e-07
0.0532453
-6.46086e-07
0.0532453
1.88975e-07
0.0532453
6.46001e-07
-1.88842e-07
0.0564216
-6.73491e-07
0.0564216
1.99757e-07
0.0564216
6.73485e-07
-1.99717e-07
0.0596972
-6.96344e-07
0.0596972
2.08049e-07
0.0596971
6.96266e-07
-2.07931e-07
0.0630677
-7.13627e-07
0.0630677
2.13749e-07
0.0630676
7.1364e-07
-2.13735e-07
0.0665275
-7.24548e-07
0.0665275
2.16572e-07
0.0665275
7.24479e-07
-2.16471e-07
0.0700696
-7.27994e-07
0.0700696
2.16474e-07
0.0700696
7.28041e-07
-2.16499e-07
0.0736853
-7.2314e-07
0.0736853
2.13286e-07
0.0736853
7.23098e-07
-2.13219e-07
0.0773644
-7.08765e-07
0.0773645
2.07005e-07
0.0773645
7.08843e-07
-2.07066e-07
0.0810946
-6.83952e-07
0.0810946
1.97549e-07
0.0810946
6.83944e-07
-1.97523e-07
0.0848611
-6.47364e-07
0.0848611
1.84903e-07
0.0848612
6.47469e-07
-1.84995e-07
0.088647
-5.97979e-07
0.0886471
1.68974e-07
0.0886471
5.98022e-07
-1.69006e-07
0.0924326
-5.34523e-07
0.0924326
1.4964e-07
0.0924326
5.34611e-07
-1.49721e-07
0.0961947
-4.56136e-07
0.0961947
1.26691e-07
0.0961948
4.56184e-07
-1.26734e-07
0.0999071
-3.62297e-07
0.0999071
9.99255e-08
0.0999072
3.62324e-07
-9.995e-08
0.103539
-2.53537e-07
0.103539
6.95403e-08
0.10354
2.53509e-07
-6.95115e-08
0.107057
-1.30962e-07
0.107057
3.32131e-08
0.107057
1.30941e-07
-3.31919e-08
0.110421
0.110421
0.110421
)
;

boundaryField
{
    inlet
    {
        type            cyclic;
        value           nonuniform List<scalar> 
50
(
-0.110421
-0.107057
-0.10354
-0.0999072
-0.0961948
-0.0924326
-0.0886471
-0.0848611
-0.0810946
-0.0773645
-0.0736853
-0.0700696
-0.0665275
-0.0630677
-0.0596971
-0.0564216
-0.0532453
-0.0501717
-0.0472031
-0.044341
-0.0415862
-0.0389389
-0.0363986
-0.0339644
-0.0316351
-0.0294091
-0.0272843
-0.0252587
-0.0233298
-0.0214951
-0.0197519
-0.0180975
-0.016529
-0.0150436
-0.0136383
-0.0123101
-0.0110563
-0.00987375
-0.00875972
-0.00771134
-0.00672581
-0.0058004
-0.00493244
-0.00411932
-0.0033585
-0.0026475
-0.00198395
-0.00136551
-0.000789958
-0.000255121
)
;
    }
    outlet
    {
        type            cyclic;
        value           nonuniform List<scalar> 
50
(
0.110421
0.107057
0.10354
0.0999072
0.0961948
0.0924326
0.0886471
0.0848611
0.0810946
0.0773645
0.0736853
0.0700696
0.0665275
0.0630677
0.0596971
0.0564216
0.0532453
0.0501717
0.0472031
0.044341
0.0415862
0.0389389
0.0363986
0.0339644
0.0316351
0.0294091
0.0272843
0.0252587
0.0233298
0.0214951
0.0197519
0.0180975
0.016529
0.0150436
0.0136383
0.0123101
0.0110563
0.00987375
0.00875972
0.00771134
0.00672581
0.0058004
0.00493244
0.00411932
0.0033585
0.0026475
0.00198395
0.00136551
0.000789958
0.000255121
)
;
    }
    fixedWalls-bottom
    {
        type            calculated;
        value           uniform 0;
    }
    fixedWalls-top
    {
        type            symmetry;
        value           uniform 0;
    }
    frontAndBack
    {
        type            empty;
        value           nonuniform List<scalar> 0();
    }
}


// ************************************************************************* //
