/*--------------------------------*- C++ -*----------------------------------*\
  =========                 |
  \\      /  F ield         | OpenFOAM: The Open Source CFD Toolbox
   \\    /   O peration     | Website:  https://openfoam.org
    \\  /    A nd           | Version:  10
     \\/     M anipulation  |
\*---------------------------------------------------------------------------*/
FoamFile
{
    format      ascii;
    class       volSymmTensorField;
    location    "167";
    object      R;
}
// * * * * * * * * * * * * * * * * * * * * * * * * * * * * * * * * * * * * * //

dimensions      [0 2 -2 0 0 0 0];

internalField   nonuniform List<symmTensor> 
200
(
(1.4803e-16 -1.62108e-20 -0 1.4803e-16 -0 1.4803e-16)
(1.4803e-16 -1.62108e-20 -0 1.4803e-16 -0 1.4803e-16)
(1.4803e-16 -1.62109e-20 -0 1.4803e-16 -0 1.4803e-16)
(1.4803e-16 -1.62108e-20 -0 1.4803e-16 -0 1.4803e-16)
(1.4803e-16 -9.87732e-20 -0 1.4803e-16 -0 1.4803e-16)
(1.4803e-16 -9.87733e-20 -0 1.4803e-16 -0 1.4803e-16)
(1.4803e-16 -9.87736e-20 -0 1.4803e-16 -0 1.4803e-16)
(1.4803e-16 -9.87731e-20 -0 1.4803e-16 -0 1.4803e-16)
(2.27945e-16 -4.6301e-19 -0 2.27945e-16 -0 2.27945e-16)
(2.28065e-16 -4.63253e-19 -0 2.28065e-16 -0 2.28065e-16)
(2.27779e-16 -4.62675e-19 -0 2.27779e-16 -0 2.27779e-16)
(2.27789e-16 -4.62692e-19 -0 2.27789e-16 -0 2.27789e-16)
(8.02258e-16 -3.52063e-18 -0 8.02258e-16 -0 8.02258e-16)
(8.02688e-16 -3.52253e-18 -0 8.02688e-16 -0 8.02688e-16)
(8.01653e-16 -3.51801e-18 -0 8.01653e-16 -0 8.01653e-16)
(8.01688e-16 -3.51814e-18 -0 8.01688e-16 -0 8.01688e-16)
(2.0457e-15 -1.59948e-17 -0 2.0457e-15 -0 2.0457e-15)
(2.04681e-15 -1.60037e-17 -0 2.04681e-15 -0 2.04681e-15)
(2.04413e-15 -1.59829e-17 -0 2.04413e-15 -0 2.04413e-15)
(2.04422e-15 -1.59835e-17 -0 2.04422e-15 -0 2.04422e-15)
(4.28643e-15 -5.2843e-17 -0 4.28643e-15 -0 4.28643e-15)
(4.28876e-15 -5.28748e-17 -0 4.28876e-15 -0 4.28876e-15)
(4.28303e-15 -5.28051e-17 -0 4.28303e-15 -0 4.28303e-15)
(4.28325e-15 -5.28071e-17 -0 4.28325e-15 -0 4.28325e-15)
(7.90027e-15 -1.41369e-16 -0 7.90027e-15 -0 7.90027e-15)
(7.90458e-15 -1.41461e-16 -0 7.90458e-15 -0 7.90458e-15)
(7.89371e-15 -1.4127e-16 -0 7.89371e-15 -0 7.89371e-15)
(7.89419e-15 -1.41276e-16 -0 7.89419e-15 -0 7.89419e-15)
(1.33117e-14 -3.26329e-16 -0 1.33117e-14 -0 1.33117e-14)
(1.33189e-14 -3.26553e-16 -0 1.33189e-14 -0 1.33189e-14)
(1.32999e-14 -3.26098e-16 -0 1.32999e-14 -0 1.32999e-14)
(1.33009e-14 -3.26116e-16 -0 1.33009e-14 -0 1.33009e-14)
(2.09914e-14 -6.76446e-16 -0 2.09914e-14 -0 2.09914e-14)
(2.10028e-14 -6.76924e-16 -0 2.10028e-14 -0 2.10028e-14)
(2.09716e-14 -6.75938e-16 -0 2.09716e-14 -0 2.09716e-14)
(2.09735e-14 -6.75989e-16 -0 2.09735e-14 -0 2.09735e-14)
(3.14495e-14 -1.29259e-15 -0 3.14495e-14 -0 3.14495e-14)
(3.14667e-14 -1.29352e-15 -0 3.14667e-14 -0 3.14667e-14)
(3.14176e-14 -1.29153e-15 -0 3.14176e-14 -0 3.14176e-14)
(3.14212e-14 -1.29166e-15 -0 3.14212e-14 -0 3.14212e-14)
(4.5222e-14 -2.31555e-15 -0 4.5222e-14 -0 4.5222e-14)
(4.52471e-14 -2.31724e-15 -0 4.52471e-14 -0 4.52471e-14)
(4.51722e-14 -2.31349e-15 -0 4.51722e-14 -0 4.51722e-14)
(4.5179e-14 -2.31381e-15 -0 4.5179e-14 -0 4.5179e-14)
(6.28564e-14 -3.93161e-15 -0 6.28564e-14 -0 6.28564e-14)
(6.2892e-14 -3.93453e-15 -0 6.2892e-14 -0 6.2892e-14)
(6.27808e-14 -3.92782e-15 -0 6.27808e-14 -0 6.27808e-14)
(6.27933e-14 -3.92855e-15 -0 6.27933e-14 -0 6.27933e-14)
(8.48971e-14 -6.37648e-15 -0 8.48971e-14 -0 8.48971e-14)
(8.49463e-14 -6.38138e-15 -0 8.49463e-14 -0 8.49463e-14)
(8.47843e-14 -6.36985e-15 -0 8.47842e-14 -0 8.47843e-14)
(8.48073e-14 -6.37153e-15 -0 8.48073e-14 -0 8.48073e-14)
(1.1187e-13 -9.93632e-15 -0 1.1187e-13 -0 1.1187e-13)
(1.11936e-13 -9.94427e-15 -0 1.11936e-13 -0 1.11936e-13)
(1.11703e-13 -9.92522e-15 -0 1.11703e-13 -0 1.11703e-13)
(1.11746e-13 -9.92897e-15 -0 1.11746e-13 -0 1.11746e-13)
(1.44266e-13 -1.49437e-14 -0 1.44266e-13 -0 1.44266e-13)
(1.44351e-13 -1.49561e-14 -0 1.44351e-13 -0 1.44351e-13)
(1.44021e-13 -1.49257e-14 -0 1.44021e-13 -0 1.44021e-13)
(1.44099e-13 -1.4934e-14 -0 1.44099e-13 -0 1.44099e-13)
(1.82524e-13 -2.17676e-14 -0 1.82524e-13 -0 1.82524e-13)
(1.82625e-13 -2.17859e-14 -0 1.82625e-13 -0 1.82625e-13)
(1.82162e-13 -2.17387e-14 -0 1.82162e-13 -0 1.82162e-13)
(1.82302e-13 -2.17564e-14 -0 1.82302e-13 -0 1.82302e-13)
(2.27004e-13 -3.07955e-14 -0 2.27004e-13 -0 2.27004e-13)
(2.27116e-13 -3.08212e-14 -0 2.27116e-13 -0 2.27116e-13)
(2.2647e-13 -3.07495e-14 -0 2.2647e-13 -0 2.2647e-13)
(2.26718e-13 -3.07862e-14 -0 2.26718e-13 -0 2.26718e-13)
(2.7797e-13 -4.24097e-14 -0 2.7797e-13 -0 2.7797e-13)
(2.78083e-13 -4.24438e-14 -0 2.78083e-13 -0 2.78083e-13)
(2.77189e-13 -4.23366e-14 -0 2.77189e-13 -0 2.77189e-13)
(2.77611e-13 -4.24089e-14 -0 2.77611e-13 -0 2.77611e-13)
(3.35571e-13 -5.69571e-14 -0 3.35571e-13 -0 3.35571e-13)
(3.35666e-13 -5.69995e-14 -0 3.35666e-13 -0 3.35666e-13)
(3.34437e-13 -5.68407e-14 -0 3.34437e-13 -0 3.34437e-13)
(3.35129e-13 -5.69766e-14 -0 3.35129e-13 -0 3.35129e-13)
(3.99816e-13 -7.47179e-14 -0 3.99816e-13 -0 3.99816e-13)
(3.99866e-13 -7.47659e-14 -0 3.99866e-13 -0 3.99866e-13)
(3.98185e-13 -7.45307e-14 -0 3.98185e-13 -0 3.98185e-13)
(3.99288e-13 -7.47766e-14 -0 3.99288e-13 -0 3.99288e-13)
(4.70564e-13 -9.58743e-14 -0 4.70565e-13 -0 4.70565e-13)
(4.70529e-13 -9.59207e-14 -0 4.70529e-13 -0 4.70529e-13)
(4.68239e-13 -9.55706e-14 -0 4.68239e-13 -0 4.68239e-13)
(4.69959e-13 -9.60004e-14 -0 4.69959e-13 -0 4.69959e-13)
(5.47447e-13 -1.20472e-13 -0 5.47447e-13 -0 5.47447e-13)
(5.47249e-13 -1.20498e-13 -0 5.47249e-13 -0 5.47249e-13)
(5.4423e-13 -1.19991e-13 -0 5.4423e-13 -0 5.4423e-13)
(5.46857e-13 -1.20719e-13 -0 5.46857e-13 -0 5.46857e-13)
(6.29956e-13 -1.48419e-13 -0 6.29957e-13 -0 6.29956e-13)
(6.29513e-13 -1.48398e-13 -0 6.29512e-13 -0 6.29513e-13)
(6.25606e-13 -1.4768e-13 -0 6.25606e-13 -0 6.25606e-13)
(6.29549e-13 -1.48868e-13 -0 6.29549e-13 -0 6.29549e-13)
(7.17405e-13 -1.79475e-13 -0 7.17406e-13 -0 7.17406e-13)
(7.16617e-13 -1.79374e-13 -0 7.16617e-13 -0 7.16617e-13)
(7.11632e-13 -1.78371e-13 -0 7.11631e-13 -0 7.11632e-13)
(7.17231e-13 -1.80187e-13 -0 7.17231e-13 -0 7.17231e-13)
(8.08927e-13 -2.13252e-13 -0 8.08928e-13 -0 8.08927e-13)
(8.07692e-13 -2.13032e-13 -0 8.07691e-13 -0 8.07692e-13)
(8.01392e-13 -2.11657e-13 -0 8.01391e-13 -0 8.01392e-13)
(8.08872e-13 -2.14243e-13 -0 8.08873e-13 -0 8.08872e-13)
(9.03475e-13 -2.49225e-13 -0 9.03476e-13 -0 9.03476e-13)
(9.01726e-13 -2.48853e-13 -0 9.01725e-13 -0 9.01726e-13)
(8.9382e-13 -2.47012e-13 -0 8.93819e-13 -0 8.93819e-13)
(9.03279e-13 -2.50454e-13 -0 9.03279e-13 -0 9.03279e-13)
(9.99865e-13 -2.86754e-13 -0 9.99866e-13 -0 9.99865e-13)
(9.97179e-13 -2.86092e-13 -0 9.97179e-13 -0 9.97179e-13)
(9.87713e-13 -2.83781e-13 -0 9.87712e-13 -0 9.87712e-13)
(9.98969e-13 -2.88083e-13 -0 9.9897e-13 -0 9.9897e-13)
(1.09715e-12 -3.25215e-13 -0 1.09715e-12 -0 1.09715e-12)
(1.09294e-12 -3.24063e-13 -0 1.09294e-12 -0 1.09294e-12)
(1.08162e-12 -3.21191e-13 -0 1.08162e-12 -0 1.08162e-12)
(1.09405e-12 -3.26202e-13 -0 1.09405e-12 -0 1.09405e-12)
(1.19151e-12 -3.63086e-13 -0 1.19151e-12 -0 1.19151e-12)
(1.18841e-12 -3.62207e-13 -0 1.18841e-12 -0 1.18841e-12)
(1.17396e-12 -3.58383e-13 -0 1.17396e-12 -0 1.17396e-12)
(1.18841e-12 -3.64374e-13 -0 1.18841e-12 -0 1.18841e-12)
(1.2807e-12 -3.99228e-13 -0 1.2807e-12 -0 1.2807e-12)
(1.28188e-12 -3.99639e-13 -0 1.28188e-12 -0 1.28188e-12)
(1.26312e-12 -3.94452e-13 -0 1.26312e-12 -0 1.26312e-12)
(1.28066e-12 -4.0179e-13 -0 1.28066e-12 -0 1.28066e-12)
(1.36578e-12 -4.33547e-13 -0 1.36578e-12 -0 1.36578e-12)
(1.37041e-12 -4.3504e-13 -0 1.37041e-12 -0 1.37041e-12)
(1.34756e-12 -4.28512e-13 -0 1.34756e-12 -0 1.34756e-12)
(1.37004e-12 -4.37824e-13 -0 1.37004e-12 -0 1.37004e-12)
(1.44443e-12 -4.64913e-13 -0 1.44443e-12 -0 1.44443e-12)
(1.45073e-12 -4.66942e-13 -0 1.45073e-12 -0 1.45073e-12)
(1.42583e-12 -4.59727e-13 -0 1.42582e-12 -0 1.42583e-12)
(1.45134e-12 -4.70403e-13 -0 1.45134e-12 -0 1.45134e-12)
(1.51451e-12 -4.92252e-13 -0 1.51452e-12 -0 1.51452e-12)
(1.52063e-12 -4.9424e-13 -0 1.52063e-12 -0 1.52063e-12)
(1.49645e-12 -4.87228e-13 -0 1.49645e-12 -0 1.49645e-12)
(1.52305e-12 -4.98617e-13 -0 1.52305e-12 -0 1.52305e-12)
(1.57469e-12 -5.14752e-13 -0 1.57469e-12 -0 1.57469e-12)
(1.57673e-12 -5.15502e-13 -0 1.57673e-12 -0 1.57673e-12)
(1.5583e-12 -5.10241e-13 -0 1.55829e-12 -0 1.5583e-12)
(1.58337e-12 -5.21481e-13 -0 1.58337e-12 -0 1.58337e-12)
(1.62502e-12 -5.32073e-13 -0 1.62503e-12 -0 1.62503e-12)
(1.62434e-12 -5.32029e-13 -0 1.62434e-12 -0 1.62434e-12)
(1.60915e-12 -5.27718e-13 -0 1.60915e-12 -0 1.60915e-12)
(1.63093e-12 -5.38157e-13 -0 1.63093e-12 -0 1.63093e-12)
(1.66154e-12 -5.42561e-13 -0 1.66154e-12 -0 1.66154e-12)
(1.66168e-12 -5.4269e-13 -0 1.66168e-12 -0 1.66168e-12)
(1.64827e-12 -5.39249e-13 -0 1.64827e-12 -0 1.64827e-12)
(1.66276e-12 -5.47279e-13 -0 1.66276e-12 -0 1.66276e-12)
(1.68659e-12 -5.46671e-13 -0 1.68659e-12 -0 1.68659e-12)
(1.68711e-12 -5.46745e-13 -0 1.68711e-12 -0 1.68711e-12)
(1.67521e-12 -5.44473e-13 -0 1.67521e-12 -0 1.67521e-12)
(1.68591e-12 -5.50812e-13 -0 1.68591e-12 -0 1.68591e-12)
(1.69995e-12 -5.44085e-13 -0 1.69995e-12 -0 1.69995e-12)
(1.70042e-12 -5.44151e-13 -0 1.70042e-12 -0 1.70042e-12)
(1.68977e-12 -5.42313e-13 -0 1.68977e-12 -0 1.68977e-12)
(1.69859e-12 -5.48108e-13 -0 1.69859e-12 -0 1.69859e-12)
(1.70176e-12 -5.34575e-13 -0 1.70176e-12 -0 1.70176e-12)
(1.70193e-12 -5.34575e-13 -0 1.70193e-12 -0 1.70193e-12)
(1.69217e-12 -5.32758e-13 -0 1.69217e-12 -0 1.69217e-12)
(1.70015e-12 -5.38654e-13 -0 1.70015e-12 -0 1.70015e-12)
(1.69259e-12 -5.18068e-13 -0 1.69259e-12 -0 1.69259e-12)
(1.69243e-12 -5.18302e-13 -0 1.69243e-12 -0 1.69243e-12)
(1.68308e-12 -5.1587e-13 -0 1.68308e-12 -0 1.68308e-12)
(1.69081e-12 -5.22261e-13 -0 1.69081e-12 -0 1.69081e-12)
(1.6736e-12 -4.94664e-13 -0 1.6736e-12 -0 1.6736e-12)
(1.67308e-12 -4.94608e-13 -0 1.67308e-12 -0 1.67308e-12)
(1.66358e-12 -4.92867e-13 -0 1.66358e-12 -0 1.66358e-12)
(1.6716e-12 -4.98781e-13 -0 1.6716e-12 -0 1.6716e-12)
(1.6467e-12 -4.64735e-13 -0 1.6467e-12 -0 1.6467e-12)
(1.6456e-12 -4.65234e-13 -0 1.6456e-12 -0 1.6456e-12)
(1.63504e-12 -4.62943e-13 -0 1.63504e-12 -0 1.63504e-12)
(1.64455e-12 -4.6882e-13 -0 1.64454e-12 -0 1.64454e-12)
(1.6147e-12 -4.28893e-13 -0 1.6147e-12 -0 1.6147e-12)
(1.61214e-12 -4.28818e-13 -0 1.61214e-12 -0 1.61214e-12)
(1.59914e-12 -4.26414e-13 -0 1.59914e-12 -0 1.59914e-12)
(1.61306e-12 -4.33321e-13 -0 1.61306e-12 -0 1.61306e-12)
(1.58148e-12 -3.87548e-13 -0 1.58147e-12 -0 1.58148e-12)
(1.57574e-12 -3.87999e-13 -0 1.57574e-12 -0 1.57574e-12)
(1.55774e-12 -3.83186e-13 -0 1.55774e-12 -0 1.55774e-12)
(1.58299e-12 -3.93228e-13 -0 1.58299e-12 -0 1.58299e-12)
(1.52987e-12 -3.37712e-13 -0 1.52987e-12 -0 1.52987e-12)
(1.54261e-12 -3.41774e-13 -0 1.54262e-12 -0 1.54261e-12)
(1.51249e-12 -3.35242e-13 -0 1.5125e-12 -0 1.51249e-12)
(1.5428e-12 -3.4508e-13 -0 1.54279e-12 -0 1.54279e-12)
(1.48217e-12 -2.84574e-13 -0 1.48216e-12 -0 1.48216e-12)
(1.50706e-12 -2.89079e-13 -0 1.50706e-12 -0 1.50706e-12)
(1.46666e-12 -2.82882e-13 -0 1.46667e-12 -0 1.46666e-12)
(1.49796e-12 -2.90694e-13 -0 1.49795e-12 -0 1.49796e-12)
(1.43661e-12 -2.26555e-13 -0 1.43661e-12 -0 1.43661e-12)
(1.46764e-12 -2.31196e-13 -0 1.46764e-12 -0 1.46764e-12)
(1.42407e-12 -2.25736e-13 -0 1.42408e-12 -0 1.42408e-12)
(1.44878e-12 -2.30971e-13 -0 1.44878e-12 -0 1.44878e-12)
(1.39664e-12 -1.65026e-13 -0 1.39663e-12 -0 1.39663e-12)
(1.42945e-12 -1.68751e-13 -0 1.42946e-12 -0 1.42946e-12)
(1.38784e-12 -1.64652e-13 -0 1.38784e-12 -0 1.38784e-12)
(1.3963e-12 -1.6694e-13 -0 1.3963e-12 -0 1.3963e-12)
(1.36239e-12 -1.00285e-13 -0 1.36238e-12 -0 1.36238e-12)
(1.39668e-12 -1.02793e-13 -0 1.39668e-12 -0 1.39668e-12)
(1.36249e-12 -1.00473e-13 -0 1.3625e-12 -0 1.3625e-12)
(1.35358e-12 -1.00959e-13 -0 1.35358e-12 -0 1.35358e-12)
(1.33663e-12 -3.35392e-14 -0 1.33662e-12 -0 1.33663e-12)
(1.37297e-12 -3.45496e-14 -0 1.37298e-12 -0 1.37298e-12)
(1.35475e-12 -3.40622e-14 -0 1.35476e-12 -0 1.35476e-12)
(1.32587e-12 -3.3745e-14 -0 1.32587e-12 -0 1.32587e-12)
)
;

boundaryField
{
    inlet
    {
        type            cyclic;
    }
    outlet
    {
        type            cyclic;
    }
    fixedWalls-bottom
    {
        type            kqRWallFunction;
        value           uniform (1.4803e-16 -0 -0 1.4803e-16 -0 1.4803e-16);
    }
    fixedWalls-top
    {
        type            symmetry;
    }
    frontAndBack
    {
        type            empty;
    }
}


// ************************************************************************* //
