/*--------------------------------*- C++ -*----------------------------------*\
  =========                 |
  \\      /  F ield         | OpenFOAM: The Open Source CFD Toolbox
   \\    /   O peration     | Website:  https://openfoam.org
    \\  /    A nd           | Version:  10
     \\/     M anipulation  |
\*---------------------------------------------------------------------------*/
FoamFile
{
    format      ascii;
    class       volVectorField;
    location    "167";
    object      U;
}
// * * * * * * * * * * * * * * * * * * * * * * * * * * * * * * * * * * * * * //

dimensions      [0 1 -1 0 0 0 0];

internalField   nonuniform List<vector> 
200
(
(0.0138461 4.66041e-11 0)
(0.0138461 -2.00057e-10 0)
(0.0138462 -4.40725e-11 0)
(0.0138461 2.22792e-10 0)
(0.0416771 2.61653e-10 0)
(0.0416772 -1.65353e-09 0)
(0.0416773 4.22852e-10 0)
(0.0416771 1.62909e-09 0)
(0.070033 -8.56052e-10 0)
(0.070033 -4.40382e-09 0)
(0.0700333 1.208e-09 0)
(0.0700329 4.40441e-09 0)
(0.0989122 -2.24694e-09 0)
(0.0989123 -8.262e-09 0)
(0.0989126 2.56805e-09 0)
(0.0989122 8.26684e-09 0)
(0.128313 -4.21049e-09 0)
(0.128313 -1.3058e-08 0)
(0.128313 4.48026e-09 0)
(0.128312 1.30662e-08 0)
(0.158231 -6.74763e-09 0)
(0.158231 -1.85979e-08 0)
(0.158231 6.97687e-09 0)
(0.158231 1.86104e-08 0)
(0.188662 -9.92012e-09 0)
(0.188662 -2.46753e-08 0)
(0.188663 1.01146e-08 0)
(0.188662 2.46923e-08 0)
(0.219601 -1.37917e-08 0)
(0.219601 -3.10659e-08 0)
(0.219601 1.39593e-08 0)
(0.219601 3.1089e-08 0)
(0.25104 -1.84469e-08 0)
(0.25104 -3.75237e-08 0)
(0.251041 1.8591e-08 0)
(0.25104 3.75522e-08 0)
(0.282972 -2.39829e-08 0)
(0.282972 -4.37861e-08 0)
(0.282972 2.41079e-08 0)
(0.282971 4.38213e-08 0)
(0.315385 -3.05117e-08 0)
(0.315385 -4.95876e-08 0)
(0.315386 3.06184e-08 0)
(0.315384 4.96293e-08 0)
(0.348269 -3.81627e-08 0)
(0.348269 -5.46536e-08 0)
(0.348269 3.82539e-08 0)
(0.348268 5.4703e-08 0)
(0.38161 -4.70735e-08 0)
(0.38161 -5.87264e-08 0)
(0.38161 4.71497e-08 0)
(0.381609 5.87824e-08 0)
(0.415393 -5.73995e-08 0)
(0.415393 -6.15507e-08 0)
(0.415393 5.74625e-08 0)
(0.415392 6.16141e-08 0)
(0.449601 -6.92953e-08 0)
(0.4496 -6.29071e-08 0)
(0.449601 6.93449e-08 0)
(0.449599 6.29773e-08 0)
(0.484213 -8.2926e-08 0)
(0.484213 -6.25908e-08 0)
(0.484213 8.29633e-08 0)
(0.484212 6.2669e-08 0)
(0.519209 -9.84424e-08 0)
(0.519208 -6.04509e-08 0)
(0.519208 9.84678e-08 0)
(0.519207 6.05354e-08 0)
(0.554563 -1.15996e-07 0)
(0.554562 -5.63621e-08 0)
(0.554563 1.1601e-07 0)
(0.554561 5.64537e-08 0)
(0.590249 -1.35707e-07 0)
(0.590249 -5.02656e-08 0)
(0.590249 1.35711e-07 0)
(0.590247 5.03634e-08 0)
(0.626237 -1.57681e-07 0)
(0.626236 -4.21346e-08 0)
(0.626236 1.57674e-07 0)
(0.626235 4.22395e-08 0)
(0.662493 -1.81973e-07 0)
(0.662493 -3.20161e-08 0)
(0.662493 1.81957e-07 0)
(0.662491 3.21261e-08 0)
(0.698982 -2.08608e-07 0)
(0.698982 -1.99899e-08 0)
(0.698981 2.08583e-07 0)
(0.69898 2.01055e-08 0)
(0.735663 -2.37546e-07 0)
(0.735663 -6.20921e-09 0)
(0.735662 2.37512e-07 0)
(0.735661 6.32914e-09 0)
(0.772493 -2.68697e-07 0)
(0.772493 9.14562e-09 0)
(0.772492 2.68655e-07 0)
(0.772491 -9.02064e-09 0)
(0.809424 -3.01897e-07 0)
(0.809423 2.58274e-08 0)
(0.809423 3.01848e-07 0)
(0.809421 -2.57e-08 0)
(0.846403 -3.36922e-07 0)
(0.846403 4.3573e-08 0)
(0.846402 3.36867e-07 0)
(0.846401 -4.34427e-08 0)
(0.883374 -3.73466e-07 0)
(0.883374 6.20632e-08 0)
(0.883373 3.73405e-07 0)
(0.883372 -6.19319e-08 0)
(0.920275 -4.11158e-07 0)
(0.920275 8.09761e-08 0)
(0.920274 4.11093e-07 0)
(0.920273 -8.08431e-08 0)
(0.95704 -4.49546e-07 0)
(0.957039 9.99484e-08 0)
(0.957039 4.49479e-07 0)
(0.957037 -9.98182e-08 0)
(0.993594 -4.88116e-07 0)
(0.993594 1.18629e-07 0)
(0.993593 4.88048e-07 0)
(0.993592 -1.18501e-07 0)
(1.02986 -5.26278e-07 0)
(1.02986 1.3664e-07 0)
(1.02986 5.26211e-07 0)
(1.02986 -1.36518e-07 0)
(1.06575 -5.63385e-07 0)
(1.06575 1.53627e-07 0)
(1.06575 5.63321e-07 0)
(1.06575 -1.53511e-07 0)
(1.10118 -5.98727e-07 0)
(1.10118 1.69227e-07 0)
(1.10118 5.98668e-07 0)
(1.10118 -1.6912e-07 0)
(1.13604 -6.31547e-07 0)
(1.13604 1.83112e-07 0)
(1.13604 6.31493e-07 0)
(1.13604 -1.83015e-07 0)
(1.17023 -6.61036e-07 0)
(1.17023 1.94965e-07 0)
(1.17023 6.60988e-07 0)
(1.17023 -1.94878e-07 0)
(1.20363 -6.86351e-07 0)
(1.20363 2.04509e-07 0)
(1.20362 6.86308e-07 0)
(1.20362 -2.04432e-07 0)
(1.23611 -7.06607e-07 0)
(1.23611 2.11496e-07 0)
(1.23611 7.0657e-07 0)
(1.23611 -2.11429e-07 0)
(1.26755 -7.20893e-07 0)
(1.26755 2.15726e-07 0)
(1.26755 7.20864e-07 0)
(1.26755 -2.15671e-07 0)
(1.2978 -7.28264e-07 0)
(1.2978 2.17042e-07 0)
(1.2978 7.28248e-07 0)
(1.2978 -2.17003e-07 0)
(1.32669 -7.27748e-07 0)
(1.32669 2.15329e-07 0)
(1.32669 7.27749e-07 0)
(1.32669 -2.1531e-07 0)
(1.35408 -7.18325e-07 0)
(1.35408 2.1051e-07 0)
(1.35408 7.18339e-07 0)
(1.35408 -2.10507e-07 0)
(1.37977 -6.98923e-07 0)
(1.37977 2.02542e-07 0)
(1.37977 6.9896e-07 0)
(1.37977 -2.02561e-07 0)
(1.40358 -6.68414e-07 0)
(1.40358 1.91393e-07 0)
(1.40358 6.68464e-07 0)
(1.40358 -1.91425e-07 0)
(1.4253 -6.2562e-07 0)
(1.4253 1.77034e-07 0)
(1.4253 6.257e-07 0)
(1.4253 -1.77095e-07 0)
(1.44471 -5.69384e-07 0)
(1.44471 1.59351e-07 0)
(1.44471 5.69459e-07 0)
(1.44471 -1.59405e-07 0)
(1.46157 -4.9857e-07 0)
(1.46157 1.38059e-07 0)
(1.46157 4.98647e-07 0)
(1.46157 -1.38117e-07 0)
(1.47563 -4.12248e-07 0)
(1.47563 1.1278e-07 0)
(1.47563 4.12293e-07 0)
(1.47563 -1.12809e-07 0)
(1.48662 -3.10363e-07 0)
(1.48662 8.4385e-08 0)
(1.48662 3.10374e-07 0)
(1.48662 -8.43736e-08 0)
(1.49425 -1.94947e-07 0)
(1.49425 5.23633e-08 0)
(1.49425 1.94864e-07 0)
(1.49425 -5.2382e-08 0)
(1.49821 -6.51362e-08 0)
(1.49821 1.79577e-08 0)
(1.49821 6.51835e-08 0)
(1.49821 -1.78992e-08 0)
)
;

boundaryField
{
    inlet
    {
        type            cyclic;
    }
    outlet
    {
        type            cyclic;
    }
    fixedWalls-bottom
    {
        type            noSlip;
    }
    fixedWalls-top
    {
        type            symmetry;
    }
    frontAndBack
    {
        type            empty;
    }
}


// ************************************************************************* //
