/*--------------------------------*- C++ -*----------------------------------*\
  =========                 |
  \\      /  F ield         | OpenFOAM: The Open Source CFD Toolbox
   \\    /   O peration     | Website:  https://openfoam.org
    \\  /    A nd           | Version:  10
     \\/     M anipulation  |
\*---------------------------------------------------------------------------*/
FoamFile
{
    format      ascii;
    class       volScalarField;
    location    "2463";
    object      k;
}
// * * * * * * * * * * * * * * * * * * * * * * * * * * * * * * * * * * * * * //

dimensions      [0 2 -2 0 0 0 0];

internalField   nonuniform List<scalar> 
400
(
6.68702e-09
6.69384e-09
6.69098e-09
6.69009e-09
2.0063e-07
2.00834e-07
2.00748e-07
2.00722e-07
1.42079e-06
1.42224e-06
1.42163e-06
1.42144e-06
5.16477e-06
5.17005e-06
5.16783e-06
5.16715e-06
1.33601e-05
1.33738e-05
1.3368e-05
1.33663e-05
2.82785e-05
2.83075e-05
2.82951e-05
2.82915e-05
5.25011e-05
5.25548e-05
5.25316e-05
5.2525e-05
8.88873e-05
8.89777e-05
8.89375e-05
8.89266e-05
0.000140521
0.000140662
0.000140597
0.00014058
0.000210619
0.000210823
0.000210721
0.000210699
0.000302372
0.000302651
0.000302499
0.000302469
0.000418727
0.000419087
0.000418866
0.000418829
0.00056209
0.000562528
0.000562214
0.000562173
0.00073397
0.000734472
0.00073404
0.000733996
0.00093462
0.000935163
0.000934582
0.000934542
0.00116273
0.00116328
0.00116253
0.0011625
0.0014153
0.00141581
0.00141487
0.00141486
0.00168768
0.00168813
0.00168699
0.001687
0.00197399
0.00197435
0.00197302
0.00197307
0.00226766
0.00226791
0.00226641
0.00226651
0.00256202
0.00256216
0.00256052
0.0025607
0.00285096
0.00285098
0.00284924
0.00284951
0.00312951
0.00312941
0.0031276
0.00312799
0.00339491
0.00339468
0.00339278
0.00339334
0.00364544
0.00364505
0.00364309
0.00364387
0.00387943
0.00387891
0.00387689
0.00387793
0.00409578
0.00409513
0.00409307
0.00409441
0.00429389
0.00429313
0.00429103
0.00429272
0.0044736
0.00447273
0.00447061
0.00447268
0.00463512
0.00463412
0.00463201
0.00463448
0.00477894
0.00477775
0.0047757
0.00477859
0.00490572
0.00490429
0.00490234
0.00490566
0.00501626
0.00501452
0.00501272
0.00501648
0.0051114
0.0051093
0.00510771
0.00511192
0.00519206
0.00518956
0.00518822
0.00519288
0.00525913
0.00525624
0.00525519
0.00526028
0.00531355
0.00531031
0.00530956
0.00531507
0.00535624
0.00535274
0.00535228
0.00535819
0.00538798
0.00538433
0.00538416
0.00539047
0.00540992
0.00540623
0.00540624
0.00541283
0.00542294
0.0054193
0.00541942
0.00542626
0.00542763
0.00542412
0.00542429
0.00543135
0.00542455
0.00542122
0.00542135
0.00542863
0.0054142
0.00541107
0.0054111
0.0054186
0.00539706
0.00539408
0.00539401
0.00540173
0.00537357
0.00537067
0.0053705
0.00537846
0.00534416
0.00534126
0.00534101
0.00534922
0.00530923
0.00530623
0.00530591
0.00531441
0.00526912
0.00526596
0.00526556
0.0052744
0.00522415
0.00522075
0.00522027
0.0052295
0.00517459
0.0051709
0.00517031
0.00518002
0.00512067
0.00511677
0.00511587
0.0051262
0.00506256
0.00505859
0.00505718
0.00506822
0.00500041
0.00499654
0.0049945
0.00500624
0.00493435
0.00493069
0.00492809
0.00494038
0.00486449
0.00486116
0.00485811
0.00487078
0.00479116
0.00478798
0.00478462
0.00479755
0.00471424
0.00471133
0.00470767
0.00472081
0.00463381
0.00463126
0.00462732
0.00464064
0.00454995
0.00454782
0.00454364
0.00455711
0.00446271
0.00446107
0.00445673
0.00447029
0.00437247
0.004371
0.00436662
0.00438024
0.00427934
0.00427765
0.00427338
0.004287
0.00418339
0.00418106
0.00417717
0.00419061
0.00408472
0.00408122
0.00407817
0.00409112
0.00398295
0.00397831
0.00397649
0.00398858
0.00387803
0.0038728
0.00387187
0.0038831
0.00376998
0.00376434
0.00376429
0.00377479
0.00365887
0.00365341
0.00365365
0.00366364
0.00354477
0.00354041
0.00354008
0.00354967
0.00342791
0.00342469
0.00342372
0.00343299
0.0033085
0.00330611
0.00330467
0.00331368
0.00318666
0.00318468
0.00318296
0.00319183
0.00306243
0.00306039
0.00305864
0.0030675
0.00293566
0.00293338
0.00293166
0.0029408
0.00280719
0.00280356
0.00280272
0.0028116
0.00267646
0.00267187
0.00267163
0.00268007
0.00254337
0.00253881
0.0025385
0.0025464
0.00240807
0.00240429
0.00240376
0.00241079
0.0022708
0.00226817
0.00226743
0.00227358
0.00213206
0.0021304
0.00212965
0.00213501
0.00199218
0.00199129
0.0019906
0.00199538
0.00185164
0.00185124
0.00185068
0.00185503
0.00171095
0.00171076
0.00171039
0.00171436
0.00157065
0.00157048
0.00157029
0.00157392
0.00143135
0.00143111
0.00143105
0.00143435
0.00129381
0.00129347
0.00129349
0.00129647
0.00115893
0.00115855
0.00115858
0.00116124
0.00102781
0.00102742
0.00102744
0.00102976
0.000901686
0.000901321
0.00090134
0.000903336
0.000781956
0.000781624
0.000781662
0.000783352
0.000670096
0.000669793
0.000669857
0.000671271
0.000567585
0.0005673
0.000567381
0.000568554
0.000475794
0.000475522
0.000475607
0.000476573
0.00039588
0.000395624
0.00039571
0.000396499
0.000328708
0.000328471
0.000328555
0.000329191
0.000274798
0.000274582
0.000274653
0.000275164
0.000234359
0.000234163
0.000234202
0.000234621
0.000207403
0.000207214
0.00020718
0.000207573
0.000193895
0.00019366
0.000193531
0.000194004
)
;

boundaryField
{
    inlet
    {
        type            cyclic;
    }
    outlet
    {
        type            cyclic;
    }
    fixedWalls-bottom
    {
        type            kqRWallFunction;
        value           nonuniform List<scalar> 4(6.68702e-09 6.69384e-09 6.69098e-09 6.69009e-09);
    }
    fixedWalls-top
    {
        type            symmetry;
    }
    frontAndBack
    {
        type            empty;
    }
}


// ************************************************************************* //
