/*--------------------------------*- C++ -*----------------------------------*\
  =========                 |
  \\      /  F ield         | OpenFOAM: The Open Source CFD Toolbox
   \\    /   O peration     | Website:  https://openfoam.org
    \\  /    A nd           | Version:  10
     \\/     M anipulation  |
\*---------------------------------------------------------------------------*/
FoamFile
{
    format      ascii;
    class       volScalarField;
    location    "2463";
    object      omega;
}
// * * * * * * * * * * * * * * * * * * * * * * * * * * * * * * * * * * * * * //

dimensions      [0 0 -1 0 0 0 0];

internalField   nonuniform List<scalar> 
400
(
12645.7
12645.7
12645.7
12645.7
2162.96
2162.96
2162.96
2162.96
727.69
727.69
727.69
727.69
342.162
342.161
342.161
342.161
194.105
194.103
194.103
194.103
123.959
123.954
123.954
123.954
85.9685
85.9609
85.9601
85.9611
63.436
63.4246
63.4239
63.425
49.1611
49.1459
49.1454
49.1462
39.6378
39.6197
39.6198
39.6194
32.9968
32.9775
32.9769
32.9776
28.1727
28.1534
28.1532
28.1533
24.5293
24.5113
24.5114
24.5112
21.675
21.6594
21.6601
21.6596
19.3649
19.3525
19.354
19.3533
17.4446
17.436
17.4385
17.4372
15.8162
15.8114
15.8151
15.8129
14.4184
14.4163
14.4205
14.4189
13.2084
13.2078
13.2127
13.2112
12.1563
12.1567
12.1621
12.1606
11.2394
11.2405
11.246
11.2442
10.439
10.4406
10.4461
10.4436
9.74028
9.74246
9.74747
9.74424
9.13049
9.13356
9.13757
9.13366
8.5982
8.60252
8.60506
8.60058
8.13311
8.1392
8.13966
8.13481
7.72675
7.73303
7.73275
7.72712
7.37119
7.37642
7.37579
7.36926
7.05842
7.06247
7.06154
7.05408
6.78188
6.78477
6.78358
6.77518
6.53592
6.53767
6.5363
6.52698
6.31561
6.31668
6.31489
6.30475
6.11732
6.11777
6.11551
6.10453
5.93773
5.93753
5.93483
5.92309
5.77377
5.77337
5.77015
5.75771
5.62331
5.62317
5.61939
5.60624
5.48454
5.48507
5.48064
5.4668
5.35627
5.35706
5.35207
5.33769
5.23695
5.23773
5.23217
5.21735
5.1254
5.12587
5.1198
5.10462
5.02069
5.02016
5.01383
4.99869
4.92201
4.91908
4.91245
4.89921
4.82853
4.82282
4.81746
4.80448
4.73941
4.73
4.72761
4.71411
4.65416
4.6433
4.64111
4.62767
4.57241
4.56048
4.55819
4.54482
4.49383
4.48111
4.47852
4.46519
4.41811
4.40494
4.40177
4.38846
4.34491
4.33196
4.32764
4.31427
4.27392
4.26265
4.25583
4.24225
4.20483
4.1986
4.186
4.17191
4.13746
4.1328
4.12149
4.10286
4.07187
4.06809
4.06164
4.03483
4.00866
4.00173
4.00272
3.96879
3.94857
3.93973
3.94164
3.90505
3.89329
3.87798
3.87888
3.84354
3.82807
3.82142
3.81836
3.78329
3.77091
3.7636
3.76014
3.72417
3.7163
3.70666
3.70432
3.66617
3.66566
3.65011
3.65065
3.60935
3.62308
3.59254
3.59879
3.55381
3.57203
3.53965
3.54851
3.49962
3.52008
3.48862
3.49944
3.4469
3.46551
3.44035
3.45036
3.39601
3.40267
3.39749
3.39741
3.34791
3.35314
3.35655
3.33709
3.30245
3.30642
3.30138
3.28617
3.25601
3.26226
3.2678
3.23588
3.20826
3.21999
3.22079
3.19181
3.16236
3.18051
3.15474
3.15088
3.11835
3.13865
3.10746
3.10701
3.07386
3.09547
3.0632
3.06393
3.02977
3.05178
3.02092
3.0223
2.98554
3.01006
2.98238
2.98333
2.94034
2.98224
2.94636
2.95436
2.89229
2.92148
2.92822
2.90293
2.85478
2.88002
2.88871
2.86386
2.81665
2.84068
2.83858
2.82778
2.78018
2.80468
2.78981
2.7819
2.74632
2.77196
2.74589
2.74265
2.70935
2.73572
2.70915
2.70406
2.67363
2.70422
2.67266
2.67038
2.63704
2.67087
2.63804
2.63573
2.60144
2.63706
2.60423
2.6012
2.56671
2.60349
2.57105
2.56741
2.53294
2.57052
2.53851
2.53462
2.50026
2.53837
2.5067
2.50295
2.46876
2.50722
2.47571
2.47237
2.43839
2.47723
2.44564
2.44259
2.40886
2.44867
2.41663
2.413
2.37982
2.42183
2.38885
2.3829
2.35157
2.39603
2.36225
2.35337
2.32429
2.37078
2.33666
2.32564
2.29764
2.34655
2.31212
2.299
2.27139
2.32381
2.28872
2.27229
2.2456
2.30186
2.2662
2.24564
2.22046
2.27904
2.24375
2.22062
2.19514
2.25351
2.22034
2.19768
2.16735
2.22228
2.19683
2.17889
2.13281
2.18392
2.18864
2.18192
2.08497
)
;

boundaryField
{
    inlet
    {
        type            cyclic;
    }
    outlet
    {
        type            cyclic;
    }
    fixedWalls-bottom
    {
        beta1           0.075;
        blended         0;
        type            omegaWallFunction;
        value           uniform 12645.7;
    }
    fixedWalls-top
    {
        type            symmetry;
    }
    frontAndBack
    {
        type            empty;
    }
}


// ************************************************************************* //
