/*--------------------------------*- C++ -*----------------------------------*\
  =========                 |
  \\      /  F ield         | OpenFOAM: The Open Source CFD Toolbox
   \\    /   O peration     | Website:  https://openfoam.org
    \\  /    A nd           | Version:  10
     \\/     M anipulation  |
\*---------------------------------------------------------------------------*/
FoamFile
{
    format      ascii;
    class       surfaceScalarField;
    location    "2463";
    object      phi;
}
// * * * * * * * * * * * * * * * * * * * * * * * * * * * * * * * * * * * * * //

dimensions      [0 3 -1 0 0 0 0];

internalField   nonuniform List<scalar> 
696
(
0.000101981
-1.00915e-08
0.000101987
-6.06231e-09
0.000101977
1.00638e-08
6.06447e-09
0.000310753
-3.80385e-08
0.00031077
-2.38687e-08
0.000310742
3.80079e-08
2.38742e-08
0.000527354
-8.23353e-08
0.000527383
-5.32893e-08
0.000527339
8.23018e-08
5.32984e-08
0.000751988
-1.41691e-07
0.000752029
-9.41856e-08
0.00075197
1.41654e-07
9.41984e-08
0.000984858
-2.14811e-07
0.00098491
-1.4631e-07
0.000984837
2.14771e-07
1.46327e-07
0.00122616
-3.00443e-07
0.00122622
-2.09279e-07
0.00122613
3.004e-07
2.09299e-07
0.00147605
-3.97419e-07
0.00147613
-2.82538e-07
0.00147603
3.97372e-07
2.82563e-07
0.00173468
-5.04688e-07
0.00173476
-3.65322e-07
0.00173465
5.04637e-07
3.65351e-07
0.00200209
-6.21345e-07
0.00200218
-4.56588e-07
0.00200206
6.2129e-07
4.56622e-07
0.00227824
-7.46647e-07
0.00227834
-5.54932e-07
0.00227822
7.46587e-07
5.5497e-07
0.00256299
-8.79988e-07
0.0025631
-6.58477e-07
0.00256296
8.79924e-07
6.5852e-07
0.00285603
-1.02087e-06
0.00285614
-7.64806e-07
0.002856
1.0208e-06
7.64854e-07
0.00315689
-1.16884e-06
0.00315699
-8.71012e-07
0.00315684
1.16876e-06
8.71065e-07
0.00346491
-1.32329e-06
0.00346501
-9.7392e-07
0.00346486
1.32321e-06
9.73979e-07
0.00377927
-1.48333e-06
0.00377937
-1.07058e-06
0.00377921
1.48325e-06
1.07064e-06
0.004099
-1.64752e-06
0.00409909
-1.15899e-06
0.00409893
1.64743e-06
1.15906e-06
0.004423
-1.81388e-06
0.00442308
-1.23899e-06
0.00442291
1.81379e-06
1.23907e-06
0.00475014
-1.97942e-06
0.00475021
-1.31206e-06
0.00475005
1.97932e-06
1.31214e-06
0.00507933
-2.14007e-06
0.0050794
-1.38074e-06
0.00507924
2.13997e-06
1.38083e-06
0.0054096
-2.2916e-06
0.00540967
-1.44872e-06
0.00540952
2.29149e-06
1.44881e-06
0.0057402
-2.43058e-06
0.00574027
-1.52044e-06
0.00574013
2.43046e-06
1.52054e-06
0.00607058
-2.55558e-06
0.00607067
-1.60063e-06
0.00607054
2.55546e-06
1.60073e-06
0.00640089
-2.66994e-06
0.00640097
-1.68058e-06
0.00640086
2.66981e-06
1.68069e-06
0.00673183
-2.77772e-06
0.00673189
-1.74893e-06
0.00673179
2.7776e-06
1.74905e-06
0.00706382
-2.88024e-06
0.00706388
-1.80489e-06
0.00706377
2.8801e-06
1.80501e-06
0.00739698
-2.97855e-06
0.00739703
-1.84823e-06
0.00739693
2.97841e-06
1.84835e-06
0.00773146
-3.07357e-06
0.00773149
-1.87824e-06
0.0077314
3.07342e-06
1.87837e-06
0.00806744
-3.16586e-06
0.00806746
-1.89356e-06
0.00806737
3.16571e-06
1.89369e-06
0.00840517
-3.25537e-06
0.00840517
-1.892e-06
0.00840508
3.25521e-06
1.89214e-06
0.0087449
-3.34106e-06
0.00874488
-1.87063e-06
0.00874479
3.3409e-06
1.87078e-06
0.00908692
-3.42034e-06
0.00908687
-1.82588e-06
0.00908679
3.42017e-06
1.82603e-06
0.00943151
-3.48807e-06
0.00943144
-1.75383e-06
0.00943137
3.4879e-06
1.75399e-06
0.00977895
-3.53524e-06
0.00977885
-1.65098e-06
0.0097788
3.53506e-06
1.65115e-06
0.0101295
-3.54692e-06
0.0101293
-1.51551e-06
0.0101293
3.54674e-06
1.51568e-06
0.0104832
-3.49977e-06
0.0104831
-1.34951e-06
0.0104831
3.49958e-06
1.34968e-06
0.0108404
-3.35971e-06
0.0108402
-1.16246e-06
0.0108403
3.35951e-06
1.16264e-06
0.0112008
-3.0837e-06
0.0112006
-9.75433e-07
0.0112009
3.0835e-06
9.75621e-07
0.0115647
-2.64557e-06
0.0115645
-8.19668e-07
0.011565
2.64536e-06
8.19862e-07
0.0119327
-2.18088e-06
0.0119326
-6.92775e-07
0.011933
2.18067e-06
6.92975e-07
0.0123061
-1.82556e-06
0.012306
-5.84723e-07
0.0123064
1.82535e-06
5.84931e-07
0.0126856
-1.57432e-06
0.0126856
-5.07969e-07
0.0126858
1.57409e-06
5.08186e-07
0.0130715
-1.41114e-06
0.0130714
-4.56474e-07
0.0130716
1.4109e-06
4.56699e-07
0.0134639
-1.31146e-06
0.0134639
-4.1546e-07
0.013464
1.31122e-06
4.15695e-07
0.0138632
-1.24504e-06
0.0138631
-3.76473e-07
0.0138632
1.24479e-06
3.76718e-07
0.0142696
-1.18833e-06
0.0142695
-3.29754e-07
0.0142696
1.18806e-06
3.30011e-07
0.0146833
-1.1318e-06
0.0146833
-2.6153e-07
0.0146833
1.13152e-06
2.61799e-07
0.0151047
-1.06684e-06
0.0151046
-1.58238e-07
0.0151047
1.06655e-06
1.5852e-07
0.0155339
-9.84479e-07
0.0155338
-6.95593e-09
0.0155338
9.84174e-07
7.25135e-09
0.0159712
-8.77048e-07
0.015971
2.03836e-07
0.0159711
8.76728e-07
-2.03526e-07
0.0164167
-7.45941e-07
0.0164164
4.83281e-07
0.0164166
7.45607e-07
-4.82956e-07
0.0168708
-6.24514e-07
0.0168705
8.38511e-07
0.0168706
6.24164e-07
-8.38171e-07
0.0173336
-5.44269e-07
0.0173332
1.25015e-06
0.0173333
5.43905e-07
-1.2498e-06
0.0178054
-5.0838e-07
0.017805
1.64965e-06
0.017805
5.08002e-07
-1.64928e-06
0.0182862
-4.91429e-07
0.0182859
1.95629e-06
0.0182859
4.91039e-07
-1.95591e-06
0.0187763
-4.63486e-07
0.0187761
2.14255e-06
0.0187761
4.63083e-07
-2.14215e-06
0.019276
-4.07179e-07
0.0192758
2.28041e-06
0.0192759
4.06762e-07
-2.28e-06
0.0197854
-3.26466e-07
0.0197853
2.38969e-06
0.0197854
3.26035e-07
-2.38926e-06
0.0203047
-2.42505e-07
0.0203046
2.42655e-06
0.0203047
2.42059e-07
-2.42612e-06
0.0208341
-1.62326e-07
0.0208342
2.3987e-06
0.0208342
1.61865e-07
-2.39825e-06
0.021374
-9.30244e-08
0.021374
2.33226e-06
0.0213741
9.25468e-08
-2.33179e-06
0.0219245
-1.72528e-08
0.0219244
2.33783e-06
0.0219245
1.67563e-08
-2.33734e-06
0.0224858
8.4937e-08
0.0224857
2.4961e-06
0.0224858
-8.5453e-08
-2.49559e-06
0.0230582
2.23018e-07
0.0230579
2.76334e-06
0.023058
-2.23553e-07
-2.76282e-06
0.0236417
4.1528e-07
0.0236414
3.03784e-06
0.0236416
-4.15833e-07
-3.03729e-06
0.0242364
6.46648e-07
0.0242363
3.12026e-06
0.0242366
-6.47217e-07
-3.1197e-06
0.0248427
8.44871e-07
0.0248429
2.96679e-06
0.0248431
-8.45455e-07
-2.96621e-06
0.0254609
1.04866e-06
0.0254612
2.69204e-06
0.0254614
-1.04926e-06
-2.69145e-06
0.0260911
1.16061e-06
0.0260915
2.35163e-06
0.0260916
-1.16122e-06
-2.35103e-06
0.0267339
9.59783e-07
0.0267342
1.99042e-06
0.026734
-9.60398e-07
-1.98981e-06
0.0273889
6.45001e-07
0.0273893
1.66955e-06
0.027389
-6.45624e-07
-1.66894e-06
0.0280565
4.56769e-07
0.0280567
1.48948e-06
0.0280565
-4.574e-07
-1.48885e-06
0.028737
4.06549e-07
0.028737
1.51494e-06
0.0287369
-4.07185e-07
-1.51431e-06
0.0294305
5.07612e-07
0.0294302
1.73773e-06
0.0294303
-5.08251e-07
-1.7371e-06
0.0301372
7.50573e-07
0.0301368
2.08236e-06
0.0301371
-7.51213e-07
-2.08172e-06
0.0308575
1.03836e-06
0.0308571
2.47223e-06
0.0308574
-1.03899e-06
-2.4716e-06
0.0315915
1.12349e-06
0.0315912
2.72421e-06
0.0315913
-1.12411e-06
-2.72359e-06
0.0323392
8.76448e-07
0.0323393
2.64704e-06
0.032339
-8.7706e-07
-2.64643e-06
0.0331006
4.88902e-07
0.033101
2.2134e-06
0.0331006
-4.89501e-07
-2.2128e-06
0.0338758
2.09968e-07
0.0338764
1.59097e-06
0.0338761
-2.1055e-07
-1.59039e-06
0.034665
1.3294e-07
0.0346655
1.04377e-06
0.0346655
-1.33496e-07
-1.04322e-06
0.0354683
1.91991e-07
0.0354686
6.64627e-07
0.0354687
-1.92514e-07
-6.64108e-07
0.0362856
2.90288e-07
0.0362858
4.39166e-07
0.0362859
-2.90769e-07
-4.38689e-07
0.0371169
3.6374e-07
0.037117
3.26062e-07
0.0371171
-3.64172e-07
-3.25634e-07
0.0379619
3.80745e-07
0.037962
2.76157e-07
0.037962
-3.81121e-07
-2.75784e-07
0.0388203
3.38491e-07
0.0388203
2.50621e-07
0.0388203
-3.38808e-07
-2.50307e-07
0.0396915
2.51635e-07
0.0396915
2.25568e-07
0.0396914
-2.51891e-07
-2.25315e-07
0.0405748
1.42842e-07
0.0405749
1.90446e-07
0.0405748
-1.43038e-07
-1.90253e-07
0.0414694
3.68236e-08
0.0414694
1.42993e-07
0.0414693
-3.69631e-08
-1.42856e-07
0.0423738
-4.59793e-08
0.0423738
8.43749e-08
0.0423738
4.5891e-08
-8.42882e-08
0.0432864
-9.86189e-08
0.0432865
1.83769e-08
0.0432864
9.85782e-08
-1.83376e-08
0.044205
-1.29826e-07
0.0442051
-4.21545e-08
0.044205
1.29831e-07
4.21481e-08
0.0451268
-1.52252e-07
0.0451269
-8.16579e-08
0.0451269
1.52301e-07
8.16087e-08
0.0460485
-1.69719e-07
0.0460485
-9.98724e-08
0.0460485
1.69803e-07
9.97873e-08
0.0469657
-1.78595e-07
0.0469657
-1.07017e-07
0.0469657
1.78706e-07
1.06905e-07
0.0478739
-1.77021e-07
0.0478739
-1.07087e-07
0.0478739
1.77149e-07
1.06959e-07
0.0487677
-1.66074e-07
0.0487677
-9.62225e-08
0.0487677
1.66208e-07
9.60878e-08
0.0496413
-1.4411e-07
0.0496413
-7.22613e-08
0.0496413
1.44237e-07
7.21343e-08
0.0504887
-1.05751e-07
0.0504886
-3.89368e-08
0.0504887
1.05851e-07
3.88364e-08
0.0513039
-4.78234e-08
0.0513039
-8.59364e-09
0.0513039
4.78709e-08
8.54622e-09
0.0520813
0.0520813
0.0520814
)
;

boundaryField
{
    inlet
    {
        type            cyclic;
        value           nonuniform List<scalar> 
100
(
-0.0520814
-0.051304
-0.0504887
-0.0496413
-0.0487677
-0.0478739
-0.0469657
-0.0460484
-0.0451268
-0.044205
-0.0432863
-0.0423737
-0.0414693
-0.0405747
-0.0396914
-0.0388203
-0.037962
-0.037117
-0.0362857
-0.0354683
-0.0346649
-0.0338755
-0.0331002
-0.0323389
-0.0315916
-0.0308577
-0.0301374
-0.0294306
-0.0287369
-0.0280563
-0.0273886
-0.0267337
-0.0260912
-0.0254611
-0.0248429
-0.0242366
-0.0236418
-0.0230583
-0.0224859
-0.0219245
-0.021374
-0.0208342
-0.0203048
-0.0197855
-0.019276
-0.0187763
-0.0182862
-0.0178054
-0.0173337
-0.0168709
-0.0164169
-0.0159713
-0.015534
-0.0151048
-0.0146834
-0.0142696
-0.0138633
-0.013464
-0.0130716
-0.0126859
-0.0123065
-0.0119332
-0.0115651
-0.0112011
-0.0108405
-0.0104833
-0.0101295
-0.0097789
-0.00943144
-0.00908684
-0.00874481
-0.00840508
-0.00806735
-0.00773137
-0.00739689
-0.00706372
-0.00673172
-0.00640078
-0.00607046
-0.00574006
-0.00540945
-0.00507917
-0.00474997
-0.00442283
-0.00409884
-0.00377911
-0.00346475
-0.00315674
-0.00285589
-0.00256286
-0.00227812
-0.00200197
-0.00173457
-0.00147596
-0.00122607
-0.000984785
-0.000751929
-0.000527309
-0.000310725
-0.000101971
)
;
    }
    outlet
    {
        type            cyclic;
        value           nonuniform List<scalar> 
100
(
0.0520814
0.051304
0.0504887
0.0496413
0.0487677
0.0478739
0.0469657
0.0460484
0.0451268
0.044205
0.0432863
0.0423737
0.0414693
0.0405747
0.0396914
0.0388203
0.037962
0.037117
0.0362857
0.0354683
0.0346649
0.0338755
0.0331002
0.0323389
0.0315916
0.0308577
0.0301374
0.0294306
0.0287369
0.0280563
0.0273886
0.0267337
0.0260912
0.0254611
0.0248429
0.0242366
0.0236418
0.0230583
0.0224859
0.0219245
0.021374
0.0208342
0.0203048
0.0197855
0.019276
0.0187763
0.0182862
0.0178054
0.0173337
0.0168709
0.0164169
0.0159713
0.015534
0.0151048
0.0146834
0.0142696
0.0138633
0.013464
0.0130716
0.0126859
0.0123065
0.0119332
0.0115651
0.0112011
0.0108405
0.0104833
0.0101295
0.0097789
0.00943144
0.00908684
0.00874481
0.00840508
0.00806735
0.00773137
0.00739689
0.00706372
0.00673172
0.00640078
0.00607046
0.00574006
0.00540945
0.00507917
0.00474997
0.00442283
0.00409884
0.00377911
0.00346475
0.00315674
0.00285589
0.00256286
0.00227812
0.00200197
0.00173457
0.00147596
0.00122607
0.000984785
0.000751929
0.000527309
0.000310725
0.000101971
)
;
    }
    fixedWalls-bottom
    {
        type            calculated;
        value           uniform 0;
    }
    fixedWalls-top
    {
        type            symmetry;
        value           uniform 0;
    }
    frontAndBack
    {
        type            empty;
        value           nonuniform List<scalar> 0();
    }
}


// ************************************************************************* //
