/*--------------------------------*- C++ -*----------------------------------*\
  =========                 |
  \\      /  F ield         | OpenFOAM: The Open Source CFD Toolbox
   \\    /   O peration     | Website:  https://openfoam.org
    \\  /    A nd           | Version:  10
     \\/     M anipulation  |
\*---------------------------------------------------------------------------*/
FoamFile
{
    format      ascii;
    class       volSymmTensorField;
    location    "2463";
    object      R;
}
// * * * * * * * * * * * * * * * * * * * * * * * * * * * * * * * * * * * * * //

dimensions      [0 2 -2 0 0 0 0];

internalField   nonuniform List<symmTensor> 
400
(
(4.45802e-09 -2.52734e-12 -0 4.45802e-09 -0 4.45802e-09)
(4.46256e-09 -2.5303e-12 -0 4.46256e-09 -0 4.46256e-09)
(4.46065e-09 -2.52912e-12 -0 4.46065e-09 -0 4.46065e-09)
(4.46006e-09 -2.52844e-12 -0 4.46006e-09 -0 4.46006e-09)
(1.33753e-07 -4.41258e-10 -0 1.33753e-07 -0 1.33753e-07)
(1.3389e-07 -4.4177e-10 -0 1.3389e-07 -0 1.3389e-07)
(1.33832e-07 -4.41567e-10 -0 1.33832e-07 -0 1.33832e-07)
(1.33814e-07 -4.41452e-10 -0 1.33814e-07 -0 1.33814e-07)
(9.47194e-07 -9.24407e-09 -0 9.47194e-07 -0 9.47194e-07)
(9.4816e-07 -9.25469e-09 -0 9.4816e-07 -0 9.4816e-07)
(9.47754e-07 -9.2505e-09 -0 9.47754e-07 -0 9.47754e-07)
(9.47629e-07 -9.24819e-09 -0 9.47629e-07 -0 9.47629e-07)
(3.44318e-06 -7.11186e-08 -0 3.44318e-06 -0 3.44318e-06)
(3.4467e-06 -7.11997e-08 -0 3.4467e-06 -0 3.4467e-06)
(3.44522e-06 -7.11679e-08 -0 3.44522e-06 -0 3.44522e-06)
(3.44477e-06 -7.11509e-08 -0 3.44476e-06 -0 3.44476e-06)
(8.90676e-06 -3.22667e-07 -0 8.90676e-06 -0 8.90676e-06)
(8.91587e-06 -3.23035e-07 -0 8.91587e-06 -0 8.91587e-06)
(8.91203e-06 -3.22891e-07 -0 8.91202e-06 -0 8.91203e-06)
(8.91086e-06 -3.22818e-07 -0 8.91086e-06 -0 8.91086e-06)
(1.88523e-05 -1.06384e-06 -0 1.88523e-05 -0 1.88523e-05)
(1.88716e-05 -1.06507e-06 -0 1.88716e-05 -0 1.88716e-05)
(1.88634e-05 -1.0646e-06 -0 1.88634e-05 -0 1.88634e-05)
(1.8861e-05 -1.06436e-06 -0 1.8861e-05 -0 1.8861e-05)
(3.50007e-05 -2.83186e-06 -0 3.50008e-05 -0 3.50007e-05)
(3.50365e-05 -2.83525e-06 -0 3.50366e-05 -0 3.50366e-05)
(3.50211e-05 -2.834e-06 -0 3.5021e-05 -0 3.50211e-05)
(3.50167e-05 -2.8334e-06 -0 3.50166e-05 -0 3.50166e-05)
(5.92582e-05 -6.457e-06 -0 5.92583e-05 -0 5.92582e-05)
(5.93184e-05 -6.46521e-06 -0 5.93185e-05 -0 5.93185e-05)
(5.92917e-05 -6.46231e-06 -0 5.92916e-05 -0 5.92916e-05)
(5.92845e-05 -6.46101e-06 -0 5.92844e-05 -0 5.92844e-05)
(9.36808e-05 -1.30778e-05 -0 9.36811e-05 -0 9.3681e-05)
(9.37746e-05 -1.30958e-05 -0 9.37748e-05 -0 9.37747e-05)
(9.37312e-05 -1.30897e-05 -0 9.37309e-05 -0 9.3731e-05)
(9.37204e-05 -1.30873e-05 -0 9.37202e-05 -0 9.37203e-05)
(0.000140412 -2.41059e-05 -0 0.000140413 -0 0.000140412)
(0.000140549 -2.41416e-05 -0 0.000140549 -0 0.000140549)
(0.000140481 -2.41296e-05 -0 0.000140481 -0 0.000140481)
(0.000140466 -2.41263e-05 -0 0.000140466 -0 0.000140466)
(0.000201581 -4.11497e-05 -0 0.000201581 -0 0.000201581)
(0.000201767 -4.12134e-05 -0 0.000201768 -0 0.000201767)
(0.000201666 -4.11927e-05 -0 0.000201665 -0 0.000201666)
(0.000201646 -4.11865e-05 -0 0.000201646 -0 0.000201646)
(0.000279151 -6.5914e-05 -0 0.000279152 -0 0.000279151)
(0.000279391 -6.60173e-05 -0 0.000279392 -0 0.000279391)
(0.000279245 -6.59817e-05 -0 0.000279243 -0 0.000279244)
(0.00027922 -6.59742e-05 -0 0.000279219 -0 0.00027922)
(0.000374725 -0.000100082 -0 0.000374728 -0 0.000374726)
(0.000375017 -0.000100235 -0 0.000375019 -0 0.000375018)
(0.000374811 -0.000100176 -0 0.000374808 -0 0.00037481)
(0.000374783 -0.000100168 -0 0.000374781 -0 0.000374782)
(0.000489311 -0.000145168 -0 0.000489315 -0 0.000489313)
(0.000489647 -0.00014537 -0 0.000489649 -0 0.000489648)
(0.000489362 -0.000145275 -0 0.000489358 -0 0.00048936)
(0.000489332 -0.00014527 -0 0.000489329 -0 0.000489331)
(0.000623077 -0.000202313 -0 0.000623083 -0 0.00062308)
(0.00062344 -0.000202553 -0 0.000623443 -0 0.000623442)
(0.000623057 -0.000202405 -0 0.000623052 -0 0.000623055)
(0.00062303 -0.000202407 -0 0.000623027 -0 0.000623028)
(0.000775151 -0.000272044 -0 0.000775159 -0 0.000775155)
(0.00077552 -0.000272296 -0 0.000775524 -0 0.000775522)
(0.000775022 -0.000272073 -0 0.000775014 -0 0.000775018)
(0.000775001 -0.000272091 -0 0.000774997 -0 0.000774999)
(0.000943526 -0.000354045 -0 0.000943536 -0 0.000943531)
(0.000943873 -0.000354262 -0 0.000943878 -0 0.000943876)
(0.000943249 -0.000353939 -0 0.000943239 -0 0.000943244)
(0.000943241 -0.000353993 -0 0.000943236 -0 0.000943238)
(0.00112511 -0.000446947 -0 0.00112512 -0 0.00112512)
(0.00112542 -0.000447109 -0 0.00112542 -0 0.00112542)
(0.00112466 -0.000446678 -0 0.00112465 -0 0.00112466)
(0.00112467 -0.000446747 -0 0.00112466 -0 0.00112467)
(0.00131599 -0.000548475 -0 0.001316 -0 0.00131599)
(0.00131623 -0.000548575 -0 0.00131624 -0 0.00131624)
(0.00131536 -0.000548015 -0 0.00131534 -0 0.00131535)
(0.00131539 -0.000548113 -0 0.00131538 -0 0.00131538)
(0.00151176 -0.000655622 -0 0.00151178 -0 0.00151177)
(0.00151194 -0.000655643 -0 0.00151195 -0 0.00151194)
(0.00151095 -0.000654954 -0 0.00151093 -0 0.00151094)
(0.00151101 -0.000655096 -0 0.00151101 -0 0.00151101)
(0.001708 -0.000765055 -0 0.00170803 -0 0.00170802)
(0.0017081 -0.000764991 -0 0.00170811 -0 0.00170811)
(0.00170703 -0.000764189 -0 0.00170701 -0 0.00170702)
(0.00170714 -0.000764393 -0 0.00170713 -0 0.00170713)
(0.00190063 -0.000874286 -0 0.00190065 -0 0.00190064)
(0.00190065 -0.00087413 -0 0.00190066 -0 0.00190065)
(0.00189951 -0.000873193 -0 0.00189948 -0 0.00189949)
(0.00189968 -0.000873527 -0 0.00189967 -0 0.00189967)
(0.00208633 -0.000970147 -0 0.00208635 -0 0.00208634)
(0.00208627 -0.000970117 -0 0.00208628 -0 0.00208627)
(0.00208508 -0.000969555 -0 0.00208505 -0 0.00208506)
(0.00208533 -0.000969676 -0 0.00208532 -0 0.00208532)
(0.00226326 -0.00105242 -0 0.00226329 -0 0.00226327)
(0.00226311 -0.00105235 -0 0.00226312 -0 0.00226312)
(0.00226187 -0.00105176 -0 0.00226184 -0 0.00226185)
(0.00226223 -0.00105194 -0 0.00226222 -0 0.00226223)
(0.00243028 -0.00113009 -0 0.0024303 -0 0.00243029)
(0.00243003 -0.00112997 -0 0.00243004 -0 0.00243004)
(0.00242874 -0.00112936 -0 0.00242871 -0 0.00242873)
(0.00242925 -0.0011296 -0 0.00242924 -0 0.00242924)
(0.00258627 -0.00120263 -0 0.0025863 -0 0.00258629)
(0.00258593 -0.00120246 -0 0.00258594 -0 0.00258594)
(0.00258461 -0.00120184 -0 0.00258458 -0 0.00258459)
(0.00258529 -0.00120216 -0 0.00258528 -0 0.00258528)
(0.00273051 -0.0012697 -0 0.00273053 -0 0.00273052)
(0.00273008 -0.0012695 -0 0.00273009 -0 0.00273009)
(0.00272873 -0.00126886 -0 0.0027287 -0 0.00272871)
(0.00272961 -0.00126928 -0 0.0027296 -0 0.00272961)
(0.00286258 -0.00133113 -0 0.00286261 -0 0.00286259)
(0.00286208 -0.00133089 -0 0.00286209 -0 0.00286209)
(0.0028607 -0.00133024 -0 0.00286067 -0 0.00286069)
(0.00286181 -0.00133076 -0 0.00286181 -0 0.00286181)
(0.00298238 -0.00138688 -0 0.00298241 -0 0.0029824)
(0.00298182 -0.00138661 -0 0.00298182 -0 0.00298182)
(0.00298042 -0.00138595 -0 0.00298039 -0 0.00298041)
(0.00298178 -0.00138659 -0 0.00298178 -0 0.00298178)
(0.00309007 -0.00143705 -0 0.0030901 -0 0.00309008)
(0.00308942 -0.00143674 -0 0.00308941 -0 0.00308941)
(0.00308802 -0.00143608 -0 0.00308799 -0 0.00308801)
(0.00308965 -0.00143684 -0 0.00308966 -0 0.00308965)
(0.00318595 -0.00148185 -0 0.00318598 -0 0.00318596)
(0.00318518 -0.00148148 -0 0.00318516 -0 0.00318517)
(0.00318381 -0.00148084 -0 0.00318378 -0 0.0031838)
(0.00318572 -0.00148173 -0 0.00318574 -0 0.00318573)
(0.00327047 -0.00152162 -0 0.00327049 -0 0.00327048)
(0.00326954 -0.00152118 -0 0.00326951 -0 0.00326953)
(0.00326824 -0.00152056 -0 0.00326821 -0 0.00326822)
(0.00327043 -0.00152158 -0 0.00327046 -0 0.00327044)
(0.00334416 -0.0015568 -0 0.00334418 -0 0.00334417)
(0.00334303 -0.00155626 -0 0.00334299 -0 0.00334301)
(0.00334182 -0.0015557 -0 0.0033418 -0 0.00334181)
(0.0033443 -0.00155682 -0 0.00334434 -0 0.00334432)
(0.0034076 -0.001588 -0 0.00340761 -0 0.0034076)
(0.00340623 -0.00158734 -0 0.00340617 -0 0.0034062)
(0.00340514 -0.00158682 -0 0.00340514 -0 0.00340514)
(0.00340792 -0.00158804 -0 0.00340798 -0 0.00340795)
(0.00346138 -0.00161594 -0 0.00346136 -0 0.00346137)
(0.00345975 -0.00161516 -0 0.00345967 -0 0.00345971)
(0.0034588 -0.0016147 -0 0.00345883 -0 0.00345882)
(0.00346188 -0.00161598 -0 0.00346196 -0 0.00346192)
(0.00350612 -0.00164154 -0 0.00350605 -0 0.00350609)
(0.00350421 -0.00164063 -0 0.00350412 -0 0.00350416)
(0.00350342 -0.00164022 -0 0.00350349 -0 0.00350346)
(0.00350681 -0.00164151 -0 0.0035069 -0 0.00350686)
(0.00354244 -0.00166584 -0 0.00354229 -0 0.00354237)
(0.00354025 -0.00166484 -0 0.00354016 -0 0.00354021)
(0.00353963 -0.00166445 -0 0.00353978 -0 0.0035397)
(0.00354334 -0.0016657 -0 0.00354343 -0 0.00354338)
(0.00357093 -0.00169004 -0 0.00357072 -0 0.00357082)
(0.00356853 -0.00168898 -0 0.00356845 -0 0.00356849)
(0.00356808 -0.00168857 -0 0.00356829 -0 0.00356819)
(0.00357209 -0.00168969 -0 0.00357217 -0 0.00357213)
(0.00359211 -0.00169759 -0 0.00359187 -0 0.00359198)
(0.00358959 -0.00169673 -0 0.00358952 -0 0.00358956)
(0.00358932 -0.00169836 -0 0.00358955 -0 0.00358944)
(0.00359362 -0.00170451 -0 0.00359368 -0 0.00359365)
(0.00360671 -0.00169752 -0 0.00360652 -0 0.00360662)
(0.00360418 -0.00169705 -0 0.00360413 -0 0.00360415)
(0.00360406 -0.00169867 -0 0.00360426 -0 0.00360416)
(0.00360852 -0.00170432 -0 0.00360858 -0 0.00360855)
(0.00361536 -0.00169632 -0 0.00361522 -0 0.00361529)
(0.00361289 -0.00169625 -0 0.00361284 -0 0.00361287)
(0.00361288 -0.00169802 -0 0.00361301 -0 0.00361295)
(0.00361749 -0.00170406 -0 0.00361753 -0 0.00361751)
(0.00361846 -0.00169279 -0 0.00361838 -0 0.00361842)
(0.0036161 -0.00169341 -0 0.00361607 -0 0.00361608)
(0.00361615 -0.00169535 -0 0.00361624 -0 0.00361619)
(0.00362089 -0.00170125 -0 0.00362092 -0 0.0036209)
(0.00361639 -0.00168714 -0 0.00361634 -0 0.00361636)
(0.00361416 -0.00168844 -0 0.00361414 -0 0.00361415)
(0.00361421 -0.00169013 -0 0.00361426 -0 0.00361424)
(0.00361908 -0.00169637 -0 0.0036191 -0 0.00361909)
(0.00360948 -0.00167958 -0 0.00360945 -0 0.00360947)
(0.00360739 -0.00168186 -0 0.00360737 -0 0.00360738)
(0.00360738 -0.00168278 -0 0.00360742 -0 0.0036074)
(0.00361239 -0.00168951 -0 0.00361241 -0 0.0036124)
(0.00359805 -0.00167027 -0 0.00359802 -0 0.00359804)
(0.00359606 -0.00167289 -0 0.00359604 -0 0.00359605)
(0.00359599 -0.0016738 -0 0.00359602 -0 0.003596)
(0.00360114 -0.00168083 -0 0.00360117 -0 0.00360115)
(0.0035824 -0.00165929 -0 0.00358237 -0 0.00358238)
(0.00358046 -0.00166224 -0 0.00358043 -0 0.00358044)
(0.00358032 -0.00166309 -0 0.00358035 -0 0.00358034)
(0.00358562 -0.00167044 -0 0.00358566 -0 0.00358564)
(0.00356279 -0.00164678 -0 0.00356276 -0 0.00356278)
(0.00356087 -0.00164994 -0 0.00356081 -0 0.00356084)
(0.00356066 -0.00165082 -0 0.00356069 -0 0.00356067)
(0.00356612 -0.00165847 -0 0.00356618 -0 0.00356615)
(0.00353951 -0.00163282 -0 0.00353946 -0 0.00353948)
(0.00353753 -0.00163609 -0 0.00353745 -0 0.00353749)
(0.00353725 -0.00163707 -0 0.0035373 -0 0.00353728)
(0.0035429 -0.00164507 -0 0.00354298 -0 0.00354294)
(0.00351278 -0.0016175 -0 0.00351272 -0 0.00351275)
(0.00351069 -0.00162074 -0 0.00351058 -0 0.00351064)
(0.00351035 -0.00162195 -0 0.00351041 -0 0.00351038)
(0.00351621 -0.00163033 -0 0.00351632 -0 0.00351626)
(0.0034828 -0.00160092 -0 0.00348273 -0 0.00348277)
(0.00348057 -0.00160389 -0 0.00348042 -0 0.0034805)
(0.00348015 -0.00160554 -0 0.00348022 -0 0.00348018)
(0.00348626 -0.00161439 -0 0.00348641 -0 0.00348634)
(0.00344976 -0.00158315 -0 0.0034497 -0 0.00344973)
(0.00344736 -0.00158482 -0 0.00344717 -0 0.00344727)
(0.00344684 -0.00158808 -0 0.00344691 -0 0.00344688)
(0.00345325 -0.00159738 -0 0.00345345 -0 0.00345335)
(0.0034138 -0.00156426 -0 0.00341376 -0 0.00341378)
(0.00341129 -0.00156572 -0 0.00341108 -0 0.00341118)
(0.00341056 -0.0015686 -0 0.0034106 -0 0.00341058)
(0.00341736 -0.00157943 -0 0.00341757 -0 0.00341747)
(0.00337505 -0.00154426 -0 0.00337503 -0 0.00337504)
(0.00337249 -0.00154537 -0 0.00337229 -0 0.00337239)
(0.00337144 -0.00154727 -0 0.00337146 -0 0.00337145)
(0.00337871 -0.00156062 -0 0.00337891 -0 0.00337881)
(0.00333361 -0.00152306 -0 0.0033336 -0 0.00333361)
(0.00333111 -0.00152505 -0 0.00333095 -0 0.00333103)
(0.00332966 -0.00152498 -0 0.00332967 -0 0.00332967)
(0.00333741 -0.00154063 -0 0.00333757 -0 0.00333749)
(0.00328957 -0.00150062 -0 0.00328956 -0 0.00328957)
(0.00328718 -0.00150277 -0 0.00328707 -0 0.00328713)
(0.00328539 -0.00150248 -0 0.0032854 -0 0.00328539)
(0.00329354 -0.00151934 -0 0.00329364 -0 0.00329359)
(0.00324301 -0.00147571 -0 0.00324298 -0 0.003243)
(0.00324081 -0.0014802 -0 0.00324074 -0 0.00324077)
(0.00323873 -0.00147974 -0 0.00323876 -0 0.00323874)
(0.00324715 -0.00149674 -0 0.00324722 -0 0.00324719)
(0.00319413 -0.00145342 -0 0.00319409 -0 0.00319411)
(0.00319201 -0.0014554 -0 0.00319197 -0 0.00319199)
(0.00318973 -0.00145575 -0 0.00318977 -0 0.00318975)
(0.00319834 -0.00147316 -0 0.00319839 -0 0.00319837)
(0.00314284 -0.00142774 -0 0.0031428 -0 0.00314282)
(0.00314089 -0.00143058 -0 0.00314088 -0 0.00314088)
(0.00313843 -0.00143064 -0 0.00313847 -0 0.00313845)
(0.0031472 -0.00144862 -0 0.00314721 -0 0.00314721)
(0.00308923 -0.00140121 -0 0.00308919 -0 0.00308921)
(0.0030875 -0.00140485 -0 0.00308751 -0 0.0030875)
(0.00308486 -0.00140436 -0 0.0030849 -0 0.00308488)
(0.00309376 -0.00142314 -0 0.00309375 -0 0.00309376)
(0.00303332 -0.0013734 -0 0.00303328 -0 0.0030333)
(0.00303187 -0.00137834 -0 0.00303189 -0 0.00303188)
(0.00302908 -0.00137694 -0 0.00302911 -0 0.00302909)
(0.00303809 -0.00139671 -0 0.00303806 -0 0.00303807)
(0.00297516 -0.00134249 -0 0.00297512 -0 0.00297514)
(0.00297405 -0.00135161 -0 0.00297404 -0 0.00297405)
(0.00297113 -0.00134852 -0 0.00297117 -0 0.00297115)
(0.00298019 -0.00136933 -0 0.0029802 -0 0.00298019)
(0.00291501 -0.00131364 -0 0.00291496 -0 0.00291498)
(0.00291403 -0.0013227 -0 0.00291396 -0 0.002914)
(0.00291105 -0.00131921 -0 0.0029111 -0 0.00291108)
(0.00292012 -0.00134097 -0 0.00292019 -0 0.00292016)
(0.00285292 -0.00128392 -0 0.00285286 -0 0.00285289)
(0.00285183 -0.00129264 -0 0.00285171 -0 0.00285177)
(0.00284889 -0.00128912 -0 0.00284895 -0 0.00284892)
(0.00285794 -0.00131158 -0 0.00285806 -0 0.002858)
(0.00278896 -0.00125389 -0 0.00278888 -0 0.00278892)
(0.00278743 -0.0012612 -0 0.00278732 -0 0.00278737)
(0.00278474 -0.00125843 -0 0.00278482 -0 0.00278478)
(0.00279368 -0.00128102 -0 0.0027938 -0 0.00279375)
(0.00272319 -0.00122596 -0 0.0027231 -0 0.00272314)
(0.00272083 -0.00122775 -0 0.0027208 -0 0.00272081)
(0.00271873 -0.00122789 -0 0.00271883 -0 0.00271878)
(0.0027274 -0.00124896 -0 0.00272743 -0 0.00272741)
(0.00265534 -0.00119352 -0 0.00265525 -0 0.0026553)
(0.00265218 -0.00119283 -0 0.00265223 -0 0.00265221)
(0.00265095 -0.00119892 -0 0.00265104 -0 0.00265099)
(0.00265908 -0.00121534 -0 0.00265903 -0 0.00265905)
(0.00258539 -0.00116028 -0 0.00258531 -0 0.00258535)
(0.00258181 -0.00116236 -0 0.00258192 -0 0.00258187)
(0.00258121 -0.00116634 -0 0.00258129 -0 0.00258125)
(0.00258879 -0.00118129 -0 0.00258868 -0 0.00258873)
(0.00251334 -0.00112571 -0 0.00251331 -0 0.00251332)
(0.00250949 -0.00112463 -0 0.00250962 -0 0.00250956)
(0.00250951 -0.00113348 -0 0.00250953 -0 0.00250953)
(0.00251659 -0.00114698 -0 0.00251646 -0 0.00251652)
(0.00243921 -0.00109015 -0 0.00243928 -0 0.00243925)
(0.00243554 -0.0010901 -0 0.00243567 -0 0.0024356)
(0.0024358 -0.00109808 -0 0.00243574 -0 0.00243576)
(0.0024425 -0.00111163 -0 0.00244236 -0 0.00244243)
(0.00236312 -0.0010532 -0 0.00236323 -0 0.00236318)
(0.00236022 -0.00106001 -0 0.00236033 -0 0.00236027)
(0.00236011 -0.00106097 -0 0.00236 -0 0.00236005)
(0.0023665 -0.00107525 -0 0.00236638 -0 0.00236644)
(0.00228524 -0.00101624 -0 0.00228531 -0 0.00228527)
(0.0022831 -0.00102377 -0 0.00228316 -0 0.00228313)
(0.00228252 -0.00102405 -0 0.00228244 -0 0.00228248)
(0.00228869 -0.00103846 -0 0.00228863 -0 0.00228866)
(0.00220566 -0.000978803 -0 0.00220568 -0 0.00220567)
(0.00220408 -0.000986764 -0 0.00220407 -0 0.00220408)
(0.00220312 -0.000986325 -0 0.0022031 -0 0.00220311)
(0.00220912 -0.00100096 -0 0.00220913 -0 0.00220912)
(0.00212446 -0.000940842 -0 0.00212442 -0 0.00212444)
(0.00212315 -0.000948546 -0 0.00212308 -0 0.00212312)
(0.00212195 -0.000947872 -0 0.00212199 -0 0.00212197)
(0.00212785 -0.000962914 -0 0.00212792 -0 0.00212789)
(0.00204166 -0.000902301 -0 0.00204158 -0 0.00204162)
(0.00204032 -0.000908697 -0 0.0020402 -0 0.00204026)
(0.00203905 -0.00090875 -0 0.00203913 -0 0.00203909)
(0.00204494 -0.000924404 -0 0.00204506 -0 0.002045)
(0.00195715 -0.000859001 -0 0.00195707 -0 0.00195711)
(0.00195565 -0.000868186 -0 0.00195553 -0 0.00195559)
(0.0019544 -0.000866209 -0 0.00195448 -0 0.00195445)
(0.00196047 -0.00088617 -0 0.00196059 -0 0.00196053)
(0.00187147 -0.000823713 -0 0.00187145 -0 0.00187146)
(0.00186908 -0.000822369 -0 0.00186901 -0 0.00186904)
(0.00186847 -0.00082895 -0 0.00186849 -0 0.00186848)
(0.00187436 -0.000844429 -0 0.00187444 -0 0.0018744)
(0.00178427 -0.000782639 -0 0.00178433 -0 0.00178431)
(0.00178124 -0.000781226 -0 0.00178126 -0 0.00178125)
(0.00178112 -0.000787409 -0 0.00178106 -0 0.00178109)
(0.00178673 -0.000802417 -0 0.0017867 -0 0.00178672)
(0.00169553 -0.000741265 -0 0.00169563 -0 0.00169559)
(0.00169248 -0.000741525 -0 0.00169259 -0 0.00169254)
(0.00169238 -0.000744521 -0 0.00169229 -0 0.00169233)
(0.00169766 -0.000759296 -0 0.00169754 -0 0.0016976)
(0.00160534 -0.000698657 -0 0.00160541 -0 0.00160538)
(0.00160278 -0.000701131 -0 0.00160293 -0 0.00160286)
(0.00160254 -0.000703344 -0 0.00160248 -0 0.00160251)
(0.00160727 -0.000714889 -0 0.00160712 -0 0.00160719)
(0.00151386 -0.000654744 -0 0.00151388 -0 0.00151387)
(0.00151205 -0.000659552 -0 0.00151218 -0 0.00151211)
(0.00151163 -0.000660208 -0 0.00151161 -0 0.00151162)
(0.00151578 -0.000670776 -0 0.00151565 -0 0.00151572)
(0.00142138 -0.000611172 -0 0.00142137 -0 0.00142138)
(0.00142022 -0.000616158 -0 0.00142031 -0 0.00142027)
(0.00141976 -0.000616969 -0 0.00141977 -0 0.00141977)
(0.00142338 -0.000626042 -0 0.0014233 -0 0.00142334)
(0.00132813 -0.000566307 -0 0.00132811 -0 0.00132812)
(0.0013275 -0.000572404 -0 0.00132755 -0 0.00132753)
(0.00132706 -0.000572531 -0 0.00132707 -0 0.00132706)
(0.00133028 -0.000581348 -0 0.00133023 -0 0.00133026)
(0.00123443 -0.000521748 -0 0.00123442 -0 0.00123443)
(0.00123415 -0.000527937 -0 0.00123417 -0 0.00123416)
(0.00123378 -0.000528127 -0 0.00123379 -0 0.00123379)
(0.00123669 -0.000536317 -0 0.00123667 -0 0.00123668)
(0.00114064 -0.000477263 -0 0.00114063 -0 0.00114064)
(0.0011405 -0.000483179 -0 0.00114051 -0 0.00114051)
(0.00114026 -0.000483546 -0 0.00114026 -0 0.00114026)
(0.00114291 -0.000491093 -0 0.0011429 -0 0.00114291)
(0.0010471 -0.000432941 -0 0.0010471 -0 0.0010471)
(0.00104699 -0.00043838 -0 0.00104699 -0 0.00104699)
(0.00104686 -0.000438886 -0 0.00104685 -0 0.00104686)
(0.00104928 -0.000445803 -0 0.00104927 -0 0.00104928)
(0.000954227 -0.000388925 -0 0.000954241 -0 0.000954235)
(0.000954074 -0.000393802 -0 0.000954077 -0 0.000954075)
(0.000954041 -0.000394359 -0 0.000954027 -0 0.000954033)
(0.000956236 -0.000400648 -0 0.000956233 -0 0.000956235)
(0.000862532 -0.000345431 -0 0.000862548 -0 0.00086254)
(0.000862313 -0.00034973 -0 0.000862317 -0 0.000862315)
(0.000862336 -0.000350255 -0 0.00086232 -0 0.000862327)
(0.000864317 -0.000355907 -0 0.000864313 -0 0.000864316)
(0.000772615 -0.000302752 -0 0.000772629 -0 0.000772623)
(0.000772364 -0.000306509 -0 0.000772369 -0 0.000772366)
(0.000772393 -0.000306944 -0 0.000772379 -0 0.000772385)
(0.00077416 -0.000311947 -0 0.000774154 -0 0.000774157)
(0.0006852 -0.000261264 -0 0.00068521 -0 0.000685206)
(0.000684944 -0.000264531 -0 0.000684949 -0 0.000684946)
(0.000684966 -0.000264887 -0 0.000684956 -0 0.00068496)
(0.000686511 -0.000269227 -0 0.000686505 -0 0.000686509)
(0.000601121 -0.000221426 -0 0.000601127 -0 0.000601125)
(0.000600878 -0.00022426 -0 0.000600883 -0 0.00060088)
(0.000600896 -0.000224613 -0 0.00060089 -0 0.000600893)
(0.000602227 -0.000228276 -0 0.000602221 -0 0.000602224)
(0.000521302 -0.000183773 -0 0.000521306 -0 0.000521304)
(0.000521081 -0.000186222 -0 0.000521085 -0 0.000521083)
(0.00052111 -0.000186686 -0 0.000521106 -0 0.000521107)
(0.000522237 -0.000189611 -0 0.000522233 -0 0.000522235)
(0.000446729 -0.000148939 -0 0.000446732 -0 0.000446731)
(0.000446527 -0.000150998 -0 0.00044653 -0 0.000446528)
(0.000446573 -0.000151561 -0 0.00044657 -0 0.000446571)
(0.000447515 -0.000153809 -0 0.000447513 -0 0.000447514)
(0.000378389 -0.000117504 -0 0.000378391 -0 0.00037839)
(0.0003782 -0.000119161 -0 0.000378201 -0 0.0003782)
(0.000378255 -0.000119726 -0 0.000378253 -0 0.000378254)
(0.000379036 -0.000121457 -0 0.000379035 -0 0.000379036)
(0.000317195 -8.99002e-05 -0 0.000317196 -0 0.000317196)
(0.000317015 -9.11892e-05 -0 0.000317015 -0 0.000317015)
(0.000317072 -9.17168e-05 -0 0.000317071 -0 0.000317071)
(0.000317715 -9.3035e-05 -0 0.000317715 -0 0.000317716)
(0.00026392 -6.64212e-05 -0 0.00026392 -0 0.00026392)
(0.00026375 -6.73975e-05 -0 0.000263749 -0 0.000263749)
(0.000263807 -6.78923e-05 -0 0.000263806 -0 0.000263806)
(0.000264332 -6.88483e-05 -0 0.000264332 -0 0.000264332)
(0.000219138 -4.71584e-05 -0 0.000219138 -0 0.000219139)
(0.000218981 -4.78665e-05 -0 0.00021898 -0 0.00021898)
(0.000219037 -4.83107e-05 -0 0.000219036 -0 0.000219036)
(0.00021946 -4.89638e-05 -0 0.000219461 -0 0.000219461)
(0.000183198 -3.19104e-05 -0 0.000183198 -0 0.000183199)
(0.000183055 -3.23864e-05 -0 0.000183054 -0 0.000183055)
(0.000183102 -3.27282e-05 -0 0.000183102 -0 0.000183102)
(0.000183442 -3.31783e-05 -0 0.000183443 -0 0.000183443)
(0.00015624 -2.01457e-05 -0 0.000156239 -0 0.00015624)
(0.000156109 -2.04286e-05 -0 0.000156108 -0 0.000156109)
(0.000156134 -2.06426e-05 -0 0.000156135 -0 0.000156134)
(0.000156414 -2.09744e-05 -0 0.000156415 -0 0.000156414)
(0.000138269 -1.10478e-05 -0 0.000138268 -0 0.000138269)
(0.000138143 -1.11666e-05 -0 0.000138143 -0 0.000138143)
(0.00013812 -1.12602e-05 -0 0.000138121 -0 0.00013812)
(0.000138382 -1.15249e-05 -0 0.000138382 -0 0.000138382)
(0.000129264 -3.53998e-06 -0 0.000129263 -0 0.000129264)
(0.000129107 -3.52939e-06 -0 0.000129107 -0 0.000129107)
(0.00012902 -3.54035e-06 -0 0.000129021 -0 0.00012902)
(0.000129336 -3.712e-06 -0 0.000129336 -0 0.000129336)
)
;

boundaryField
{
    inlet
    {
        type            cyclic;
    }
    outlet
    {
        type            cyclic;
    }
    fixedWalls-bottom
    {
        type            kqRWallFunction;
        value           nonuniform List<symmTensor> 4((4.45802e-09 -0 -0 4.45802e-09 -0 4.45802e-09) (4.46256e-09 -0 -0 4.46256e-09 -0 4.46256e-09) (4.46065e-09 -0 -0 4.46065e-09 -0 4.46065e-09) (4.46006e-09 -0 -0 4.46006e-09 -0 4.46006e-09));
    }
    fixedWalls-top
    {
        type            symmetry;
    }
    frontAndBack
    {
        type            empty;
    }
}


// ************************************************************************* //
