/*--------------------------------*- C++ -*----------------------------------*\
  =========                 |
  \\      /  F ield         | OpenFOAM: The Open Source CFD Toolbox
   \\    /   O peration     | Website:  https://openfoam.org
    \\  /    A nd           | Version:  10
     \\/     M anipulation  |
\*---------------------------------------------------------------------------*/
FoamFile
{
    format      ascii;
    class       volVectorField;
    location    "2463";
    object      U;
}
// * * * * * * * * * * * * * * * * * * * * * * * * * * * * * * * * * * * * * //

dimensions      [0 1 -1 0 0 0 0];

internalField   nonuniform List<vector> 
400
(
(0.0110509 -1.84646e-09 0)
(0.0110527 -9.41426e-10 0)
(0.0110522 1.83097e-09 0)
(0.0110506 9.42489e-10 0)
(0.033206 -2.06786e-08 0)
(0.033211 -1.25626e-08 0)
(0.0332098 2.06484e-08 0)
(0.0332052 1.25663e-08 0)
(0.055568 -5.64477e-08 0)
(0.0555759 -3.57885e-08 0)
(0.0555741 5.64137e-08 0)
(0.0555667 3.57957e-08 0)
(0.0781364 -1.08574e-07 0)
(0.0781471 -7.09746e-08 0)
(0.0781448 1.08539e-07 0)
(0.0781349 7.09855e-08 0)
(0.10091 -1.7524e-07 0)
(0.100924 -1.17628e-07 0)
(0.100921 1.75202e-07 0)
(0.100909 1.17643e-07 0)
(0.123888 -2.54994e-07 0)
(0.123903 -1.75337e-07 0)
(0.1239 2.54952e-07 0)
(0.123886 1.75355e-07 0)
(0.147063 -3.46624e-07 0)
(0.147081 -2.43647e-07 0)
(0.147078 3.46579e-07 0)
(0.147062 2.4367e-07 0)
(0.170428 -4.49034e-07 0)
(0.170447 -3.21926e-07 0)
(0.170444 4.48985e-07 0)
(0.170426 3.21953e-07 0)
(0.193965 -5.61246e-07 0)
(0.193986 -4.09291e-07 0)
(0.193983 5.61193e-07 0)
(0.193964 4.09322e-07 0)
(0.217651 -6.82435e-07 0)
(0.217674 -5.04539e-07 0)
(0.21767 6.82378e-07 0)
(0.21765 5.04575e-07 0)
(0.241451 -8.11926e-07 0)
(0.241474 -6.06032e-07 0)
(0.24147 8.11865e-07 0)
(0.241449 6.06072e-07 0)
(0.265316 -9.49196e-07 0)
(0.265341 -7.11621e-07 0)
(0.265336 9.4913e-07 0)
(0.265315 7.11667e-07 0)
(0.289188 -1.09379e-06 0)
(0.289212 -8.18589e-07 0)
(0.289207 1.09372e-06 0)
(0.289185 8.18639e-07 0)
(0.312992 -1.24521e-06 0)
(0.313016 -9.23791e-07 0)
(0.31301 1.24514e-06 0)
(0.312988 9.23846e-07 0)
(0.336643 -1.40276e-06 0)
(0.336667 -1.02402e-06 0)
(0.33666 1.40268e-06 0)
(0.336639 1.02408e-06 0)
(0.360047 -1.56533e-06 0)
(0.36007 -1.11673e-06 0)
(0.360063 1.56524e-06 0)
(0.360042 1.11679e-06 0)
(0.383106 -1.73134e-06 0)
(0.383127 -1.20093e-06 0)
(0.38312 1.73125e-06 0)
(0.383099 1.201e-06 0)
(0.405721 -1.89811e-06 0)
(0.405742 -1.27697e-06 0)
(0.405734 1.89801e-06 0)
(0.405714 1.27704e-06 0)
(0.427807 -2.06209e-06 0)
(0.427826 -1.34697e-06 0)
(0.427818 2.06199e-06 0)
(0.427799 1.34705e-06 0)
(0.44929 -2.21893e-06 0)
(0.449308 -1.41443e-06 0)
(0.449301 2.21882e-06 0)
(0.449283 1.41452e-06 0)
(0.470118 -2.36439e-06 0)
(0.470136 -1.48454e-06 0)
(0.47013 2.36428e-06 0)
(0.470113 1.48463e-06 0)
(0.490264 -2.49584e-06 0)
(0.49028 -1.56296e-06 0)
(0.490277 2.49573e-06 0)
(0.490261 1.56306e-06 0)
(0.509752 -2.61572e-06 0)
(0.509768 -1.64046e-06 0)
(0.509765 2.6156e-06 0)
(0.50975 1.64057e-06 0)
(0.528653 -2.72576e-06 0)
(0.528668 -1.71693e-06 0)
(0.528664 2.72564e-06 0)
(0.528651 1.71704e-06 0)
(0.547012 -2.83034e-06 0)
(0.547025 -1.78031e-06 0)
(0.547021 2.83021e-06 0)
(0.54701 1.78042e-06 0)
(0.564848 -2.93051e-06 0)
(0.564859 -1.83016e-06 0)
(0.564854 2.93037e-06 0)
(0.564845 1.83028e-06 0)
(0.58218 -3.02702e-06 0)
(0.582191 -1.86697e-06 0)
(0.582184 3.02688e-06 0)
(0.582177 1.8671e-06 0)
(0.599033 -3.12063e-06 0)
(0.599043 -1.88998e-06 0)
(0.599035 3.12048e-06 0)
(0.599029 1.89011e-06 0)
(0.615432 -3.21168e-06 0)
(0.615441 -1.89742e-06 0)
(0.615432 3.21152e-06 0)
(0.615428 1.89756e-06 0)
(0.631405 -3.29977e-06 0)
(0.631411 -1.88668e-06 0)
(0.631402 3.29961e-06 0)
(0.631399 1.88682e-06 0)
(0.646978 -3.38327e-06 0)
(0.646982 -1.85443e-06 0)
(0.646971 3.3831e-06 0)
(0.646971 1.85458e-06 0)
(0.662176 -3.4586e-06 0)
(0.662178 -1.79681e-06 0)
(0.662166 3.45843e-06 0)
(0.662168 1.79696e-06 0)
(0.677024 -3.51925e-06 0)
(0.677022 -1.70981e-06 0)
(0.67701 3.51907e-06 0)
(0.677016 1.70997e-06 0)
(0.691541 -3.5543e-06 0)
(0.691536 -1.59018e-06 0)
(0.691523 3.55412e-06 0)
(0.691535 1.59035e-06 0)
(0.705744 -3.54518e-06 0)
(0.705735 -1.43728e-06 0)
(0.705721 3.54499e-06 0)
(0.705741 1.43745e-06 0)
(0.71964 -3.4582e-06 0)
(0.719626 -1.25726e-06 0)
(0.719615 3.45802e-06 0)
(0.719645 1.25746e-06 0)
(0.733231 -3.23992e-06 0)
(0.733215 -1.06878e-06 0)
(0.733207 3.23977e-06 0)
(0.733251 1.06899e-06 0)
(0.746522 -2.85585e-06 0)
(0.746504 -8.99286e-07 0)
(0.746502 2.85562e-06 0)
(0.746561 8.99406e-07 0)
(0.759566 -2.43235e-06 0)
(0.759551 -7.44136e-07 0)
(0.75955 2.4321e-06 0)
(0.759611 7.44298e-07 0)
(0.772442 -1.98903e-06 0)
(0.772433 -6.30363e-07 0)
(0.772429 1.98884e-06 0)
(0.772478 6.30606e-07 0)
(0.785187 -1.67695e-06 0)
(0.785185 -5.40888e-07 0)
(0.785178 1.67673e-06 0)
(0.785216 5.41113e-07 0)
(0.797815 -1.4733e-06 0)
(0.797819 -4.75858e-07 0)
(0.797809 1.47307e-06 0)
(0.797839 4.76086e-07 0)
(0.810338 -1.34949e-06 0)
(0.810346 -4.32414e-07 0)
(0.810333 1.34925e-06 0)
(0.810358 4.32648e-07 0)
(0.822766 -1.26938e-06 0)
(0.822775 -3.96961e-07 0)
(0.822762 1.26914e-06 0)
(0.822783 3.97201e-07 0)
(0.83511 -1.21379e-06 0)
(0.835117 -3.56682e-07 0)
(0.835104 1.21353e-06 0)
(0.835124 3.56933e-07 0)
(0.847377 -1.16055e-06 0)
(0.847381 -3.02155e-07 0)
(0.847369 1.16028e-06 0)
(0.847387 3.02418e-07 0)
(0.859575 -1.10175e-06 0)
(0.859574 -2.1959e-07 0)
(0.859563 1.10146e-06 0)
(0.859582 2.19868e-07 0)
(0.87171 -1.02856e-06 0)
(0.871704 -9.55168e-08 0)
(0.871693 1.02826e-06 0)
(0.871714 9.58165e-08 0)
(0.883788 -9.3045e-07 0)
(0.883777 8.27048e-08 0)
(0.883764 9.30141e-07 0)
(0.883789 -8.23829e-08 0)
(0.895813 -8.05244e-07 0)
(0.895798 3.28308e-07 0)
(0.895782 8.04921e-07 0)
(0.895813 -3.28005e-07 0)
(0.90779 -6.8242e-07 0)
(0.907776 6.55761e-07 0)
(0.907751 6.82077e-07 0)
(0.907789 -6.55448e-07 0)
(0.919721 -5.77387e-07 0)
(0.919713 1.04938e-06 0)
(0.919677 5.77039e-07 0)
(0.919722 -1.04903e-06 0)
(0.93161 -5.2551e-07 0)
(0.931609 1.45949e-06 0)
(0.931568 5.25128e-07 0)
(0.931614 -1.45912e-06 0)
(0.94346 -4.97862e-07 0)
(0.943465 1.81186e-06 0)
(0.943428 4.97472e-07 0)
(0.943467 -1.81149e-06 0)
(0.955275 -4.83131e-07 0)
(0.955283 2.0602e-06 0)
(0.955256 4.82723e-07 0)
(0.955286 -2.05985e-06 0)
(0.967062 -4.35554e-07 0)
(0.967066 2.24517e-06 0)
(0.967048 4.35147e-07 0)
(0.967072 -2.2447e-06 0)
(0.978816 -3.73526e-07 0)
(0.978819 2.34254e-06 0)
(0.978805 3.73108e-07 0)
(0.978827 -2.34219e-06 0)
(0.990535 -2.87637e-07 0)
(0.990546 2.41904e-06 0)
(0.990531 2.87197e-07 0)
(0.990554 -2.4186e-06 0)
(1.00223 -2.04872e-07 0)
(1.00224 2.41457e-06 0)
(1.00223 2.04421e-07 0)
(1.00225 -2.41412e-06 0)
(1.01389 -1.30745e-07 0)
(1.01392 2.34923e-06 0)
(1.0139 1.3026e-07 0)
(1.01393 -2.34882e-06 0)
(1.02555 -5.05519e-08 0)
(1.02557 2.33186e-06 0)
(1.02555 5.00721e-08 0)
(1.02557 -2.33129e-06 0)
(1.03719 3.2086e-08 0)
(1.03719 2.40121e-06 0)
(1.03718 -3.25904e-08 0)
(1.0372 -2.40072e-06 0)
(1.04882 1.49303e-07 0)
(1.04879 2.62948e-06 0)
(1.04879 -1.49834e-07 0)
(1.0488 -2.62899e-06 0)
(1.06041 3.14365e-07 0)
(1.06036 2.92151e-06 0)
(1.06039 -3.14832e-07 0)
(1.06038 -2.92097e-06 0)
(1.07197 5.16968e-07 0)
(1.07192 3.07621e-06 0)
(1.07197 -5.17545e-07 0)
(1.07194 -3.07588e-06 0)
(1.0835 7.26499e-07 0)
(1.08347 3.08879e-06 0)
(1.08352 -7.27214e-07 0)
(1.08349 -3.08816e-06 0)
(1.09501 1.00889e-06 0)
(1.095 2.86108e-06 0)
(1.09504 -1.00944e-06 0)
(1.09502 -2.86045e-06 0)
(1.10651 1.10383e-06 0)
(1.10651 2.54621e-06 0)
(1.10653 -1.1045e-06 0)
(1.10652 -2.54526e-06 0)
(1.11798 1.04333e-06 0)
(1.11802 2.17071e-06 0)
(1.11801 -1.04403e-06 0)
(1.118 -2.17025e-06 0)
(1.12945 8.51466e-07 0)
(1.12949 1.80844e-06 0)
(1.12947 -8.51923e-07 0)
(1.12947 -1.80798e-06 0)
(1.1409 5.49316e-07 0)
(1.14092 1.54314e-06 0)
(1.14091 -5.49916e-07 0)
(1.14091 -1.54242e-06 0)
(1.15233 4.07665e-07 0)
(1.15234 1.45837e-06 0)
(1.15233 -4.0828e-07 0)
(1.15233 -1.45767e-06 0)
(1.16373 4.441e-07 0)
(1.16372 1.58425e-06 0)
(1.16372 -4.44679e-07 0)
(1.16373 -1.58362e-06 0)
(1.17511 6.40889e-07 0)
(1.17509 1.88633e-06 0)
(1.17509 -6.41502e-07 0)
(1.17511 -1.88591e-06 0)
(1.18648 9.23628e-07 0)
(1.18643 2.3196e-06 0)
(1.18645 -9.24186e-07 0)
(1.18646 -2.31901e-06 0)
(1.19781 1.06187e-06 0)
(1.19777 2.64553e-06 0)
(1.19779 -1.0626e-06 0)
(1.19778 -2.64471e-06 0)
(1.20909 9.84723e-07 0)
(1.20909 2.75624e-06 0)
(1.20909 -9.85518e-07 0)
(1.20907 -2.75502e-06 0)
(1.22033 6.78248e-07 0)
(1.22036 2.45381e-06 0)
(1.22037 -6.78909e-07 0)
(1.22033 -2.45361e-06 0)
(1.23154 3.46849e-07 0)
(1.23158 1.91936e-06 0)
(1.23159 -3.47379e-07 0)
(1.23156 -1.91913e-06 0)
(1.24272 1.61372e-07 0)
(1.24274 1.30422e-06 0)
(1.24276 -1.61979e-07 0)
(1.24273 -1.30371e-06 0)
(1.25384 1.52405e-07 0)
(1.25385 8.17191e-07 0)
(1.25386 -1.52948e-07 0)
(1.25385 -8.1661e-07 0)
(1.2649 2.44002e-07 0)
(1.2649 5.21636e-07 0)
(1.26491 -2.44458e-07 0)
(1.26491 -5.21078e-07 0)
(1.27589 3.37928e-07 0)
(1.27589 3.65669e-07 0)
(1.2759 -3.38345e-07 0)
(1.27589 -3.6516e-07 0)
(1.28679 3.84853e-07 0)
(1.28679 2.95569e-07 0)
(1.2868 -3.8524e-07 0)
(1.28679 -2.95115e-07 0)
(1.29759 3.69432e-07 0)
(1.29759 2.64749e-07 0)
(1.29759 -3.69781e-07 0)
(1.29758 -2.64361e-07 0)
(1.30826 2.99957e-07 0)
(1.30826 2.42177e-07 0)
(1.30826 -3.00255e-07 0)
(1.30825 -2.41868e-07 0)
(1.31878 1.96978e-07 0)
(1.31878 2.11564e-07 0)
(1.31878 -1.97216e-07 0)
(1.31877 -2.11337e-07 0)
(1.32911 8.60034e-08 0)
(1.32911 1.67564e-07 0)
(1.32911 -8.61785e-08 0)
(1.3291 -1.67415e-07 0)
(1.33921 -9.77955e-09 0)
(1.33921 1.10901e-07 0)
(1.33922 9.66619e-09 0)
(1.3392 -1.10815e-07 0)
(1.34903 -7.70972e-08 0)
(1.34903 4.61544e-08 0)
(1.34904 7.70394e-08 0)
(1.34903 -4.61164e-08 0)
(1.35851 -1.16916e-07 0)
(1.3585 -1.48744e-08 0)
(1.35851 1.1691e-07 0)
(1.3585 1.4882e-08 0)
(1.36755 -1.4117e-07 0)
(1.36755 -6.33342e-08 0)
(1.36755 1.41211e-07 0)
(1.36754 6.33081e-08 0)
(1.37608 -1.60148e-07 0)
(1.37607 -9.42811e-08 0)
(1.37608 1.60227e-07 0)
(1.37607 9.42124e-08 0)
(1.38397 -1.74016e-07 0)
(1.38397 -1.08265e-07 0)
(1.38397 1.74122e-07 0)
(1.38397 1.08161e-07 0)
(1.39112 -1.7838e-07 0)
(1.39111 -1.1085e-07 0)
(1.39112 1.78508e-07 0)
(1.39111 1.10724e-07 0)
(1.39738 -1.71856e-07 0)
(1.39738 -1.04471e-07 0)
(1.39738 1.71997e-07 0)
(1.39738 1.04336e-07 0)
(1.40263 -1.54985e-07 0)
(1.40263 -8.76568e-08 0)
(1.40263 1.55123e-07 0)
(1.40263 8.75206e-08 0)
(1.40674 -1.25277e-07 0)
(1.40674 -5.83765e-08 0)
(1.40674 1.25391e-07 0)
(1.40674 5.82547e-08 0)
(1.40958 -7.95972e-08 0)
(1.40957 -2.44416e-08 0)
(1.40958 7.96816e-08 0)
(1.40958 2.43587e-08 0)
(1.41104 -2.82615e-08 0)
(1.41104 -7.9218e-09 0)
(1.41104 2.82933e-08 0)
(1.41104 7.88437e-09 0)
)
;

boundaryField
{
    inlet
    {
        type            cyclic;
    }
    outlet
    {
        type            cyclic;
    }
    fixedWalls-bottom
    {
        type            noSlip;
    }
    fixedWalls-top
    {
        type            symmetry;
    }
    frontAndBack
    {
        type            empty;
    }
}


// ************************************************************************* //
