/*--------------------------------*- C++ -*----------------------------------*\
  =========                 |
  \\      /  F ield         | OpenFOAM: The Open Source CFD Toolbox
   \\    /   O peration     | Website:  https://openfoam.org
    \\  /    A nd           | Version:  10
     \\/     M anipulation  |
\*---------------------------------------------------------------------------*/
FoamFile
{
    format      ascii;
    class       volScalarField;
    location    "2500";
    object      p;
}
// * * * * * * * * * * * * * * * * * * * * * * * * * * * * * * * * * * * * * //

dimensions      [0 2 -2 0 0 0 0];

internalField   nonuniform List<scalar> 
400
(
-1.31338e-10
3.31566e-07
1.17947e-07
-2.13545e-07
-4.02485e-10
3.31356e-07
1.18039e-07
-2.13335e-07
-5.98216e-10
3.31137e-07
1.18153e-07
-2.13116e-07
-7.79784e-10
3.3095e-07
1.18268e-07
-2.12929e-07
-9.09488e-10
3.30791e-07
1.18385e-07
-2.1277e-07
-1.01916e-09
3.30656e-07
1.18506e-07
-2.12636e-07
-1.12424e-09
3.30545e-07
1.18629e-07
-2.12525e-07
-1.2368e-09
3.30459e-07
1.18754e-07
-2.12439e-07
-1.35273e-09
3.30399e-07
1.1888e-07
-2.1238e-07
-1.47475e-09
3.30366e-07
1.19006e-07
-2.12347e-07
-1.59607e-09
3.30359e-07
1.19131e-07
-2.12342e-07
-1.71905e-09
3.30381e-07
1.19256e-07
-2.12364e-07
-1.83779e-09
3.30429e-07
1.19378e-07
-2.12413e-07
-1.95545e-09
3.30504e-07
1.19497e-07
-2.12489e-07
-2.067e-09
3.30606e-07
1.19613e-07
-2.12592e-07
-2.176e-09
3.30734e-07
1.19724e-07
-2.12721e-07
-2.27781e-09
3.30884e-07
1.19831e-07
-2.12873e-07
-2.37612e-09
3.31056e-07
1.19932e-07
-2.13045e-07
-2.46671e-09
3.31242e-07
1.20027e-07
-2.13233e-07
-2.55376e-09
3.31437e-07
1.20117e-07
-2.13429e-07
-2.63424e-09
3.31624e-07
1.20203e-07
-2.13618e-07
-2.71424e-09
3.31782e-07
1.20286e-07
-2.13778e-07
-2.79459e-09
3.31872e-07
1.20371e-07
-2.13869e-07
-2.8885e-09
3.31836e-07
1.20468e-07
-2.13835e-07
-3.0108e-09
3.31561e-07
1.20595e-07
-2.13562e-07
-3.20429e-09
3.30772e-07
1.20792e-07
-2.12776e-07
-3.52593e-09
3.28939e-07
1.21119e-07
-2.10945e-07
-3.9718e-09
3.25861e-07
1.21568e-07
-2.07869e-07
-4.21724e-09
3.23713e-07
1.21819e-07
-2.05724e-07
-4.17097e-09
3.23366e-07
1.21776e-07
-2.05379e-07
-4.07187e-09
3.23251e-07
1.21682e-07
-2.05266e-07
-3.97395e-09
3.23035e-07
1.21588e-07
-2.05053e-07
-3.86309e-09
3.22786e-07
1.21482e-07
-2.04806e-07
-3.73413e-09
3.22561e-07
1.21357e-07
-2.04584e-07
-3.58029e-09
3.22365e-07
1.21208e-07
-2.04391e-07
-3.4026e-09
3.22181e-07
1.21034e-07
-2.04209e-07
-3.19461e-09
3.21975e-07
1.20831e-07
-2.04007e-07
-2.95778e-09
3.21727e-07
1.20598e-07
-2.03762e-07
-2.68812e-09
3.21418e-07
1.20334e-07
-2.03456e-07
-2.3883e-09
3.21037e-07
1.20038e-07
-2.03078e-07
-2.05356e-09
3.20571e-07
1.19708e-07
-2.02616e-07
-1.68603e-09
3.20014e-07
1.19345e-07
-2.02062e-07
-1.28103e-09
3.19354e-07
1.18945e-07
-2.01406e-07
-8.41143e-10
3.18588e-07
1.18509e-07
-2.00643e-07
-3.62396e-10
3.17703e-07
1.18035e-07
-1.99761e-07
1.51651e-10
3.16693e-07
1.17526e-07
-1.98755e-07
7.03911e-10
3.15544e-07
1.16978e-07
-1.9761e-07
1.28952e-09
3.14249e-07
1.16397e-07
-1.96319e-07
1.90997e-09
3.12792e-07
1.15781e-07
-1.94866e-07
2.55858e-09
3.11164e-07
1.15137e-07
-1.93242e-07
3.23486e-09
3.0935e-07
1.14465e-07
-1.91431e-07
3.93009e-09
3.07339e-07
1.13774e-07
-1.89425e-07
4.64245e-09
3.05116e-07
1.13066e-07
-1.87206e-07
5.36254e-09
3.02673e-07
1.1235e-07
-1.84767e-07
6.08874e-09
2.99996e-07
1.11629e-07
-1.82094e-07
6.81244e-09
2.97083e-07
1.10909e-07
-1.79184e-07
7.53398e-09
2.9392e-07
1.10191e-07
-1.76026e-07
8.24779e-09
2.90507e-07
1.09481e-07
-1.72617e-07
8.9591e-09
2.86832e-07
1.08774e-07
-1.68946e-07
9.66986e-09
2.82897e-07
1.08067e-07
-1.65015e-07
1.03955e-08
2.78691e-07
1.07345e-07
-1.60814e-07
1.11383e-08
2.74217e-07
1.06605e-07
-1.56343e-07
1.18921e-08
2.69462e-07
1.05855e-07
-1.51593e-07
1.26324e-08
2.64423e-07
1.05117e-07
-1.46557e-07
1.33455e-08
2.59084e-07
1.04407e-07
-1.41222e-07
1.40125e-08
2.53444e-07
1.03743e-07
-1.35586e-07
1.46256e-08
2.47497e-07
1.03132e-07
-1.29643e-07
1.51706e-08
2.41255e-07
1.02589e-07
-1.23405e-07
1.56445e-08
2.34728e-07
1.02118e-07
-1.16881e-07
1.60383e-08
2.27942e-07
1.01726e-07
-1.10099e-07
1.63568e-08
2.20924e-07
1.01409e-07
-1.03084e-07
1.6603e-08
2.13719e-07
1.01164e-07
-9.58817e-08
1.67974e-08
2.06374e-07
1.00971e-07
-8.85403e-08
1.69627e-08
1.98959e-07
1.00806e-07
-8.11284e-08
1.71436e-08
1.91545e-07
1.00626e-07
-7.37163e-08
1.73959e-08
1.84214e-07
1.00374e-07
-6.63888e-08
1.78127e-08
1.77035e-07
9.99576e-08
-5.92115e-08
1.85205e-08
1.70024e-07
9.92496e-08
-5.22038e-08
1.96631e-08
1.63073e-07
9.81068e-08
-4.52545e-08
2.12363e-08
1.56012e-07
9.6533e-08
-3.81955e-08
2.31733e-08
1.48903e-07
9.45954e-08
-3.10883e-08
2.55484e-08
1.42794e-07
9.22193e-08
-2.49814e-08
2.84532e-08
1.39123e-07
8.93136e-08
-2.13115e-08
3.1029e-08
1.30636e-07
8.67369e-08
-1.28262e-08
2.96227e-08
8.32749e-08
8.81429e-08
3.45336e-08
2.54387e-08
1.34497e-08
9.23259e-08
1.04358e-07
2.39074e-08
-3.19551e-08
9.38559e-08
1.49762e-07
2.56272e-08
-5.48741e-08
9.21345e-08
1.7268e-07
2.8845e-08
-6.65445e-08
8.8915e-08
1.8435e-07
3.21953e-08
-7.34793e-08
8.55629e-08
1.91285e-07
3.50803e-08
-7.83254e-08
8.26763e-08
1.96131e-07
3.74253e-08
-8.18178e-08
8.03297e-08
1.99623e-07
3.92973e-08
-8.43096e-08
7.84562e-08
2.02115e-07
4.07804e-08
-8.61096e-08
7.69717e-08
2.03915e-07
4.19442e-08
-8.74629e-08
7.58068e-08
2.05268e-07
4.28431e-08
-8.84835e-08
7.49069e-08
2.06289e-07
4.35198e-08
-8.92055e-08
7.42296e-08
2.07011e-07
4.40055e-08
-8.96395e-08
7.37438e-08
2.07445e-07
4.43195e-08
-8.98252e-08
7.343e-08
2.0763e-07
4.44922e-08
-8.98306e-08
7.32589e-08
2.07634e-07
)
;

boundaryField
{
    inlet
    {
        type            cyclic;
    }
    outlet
    {
        type            cyclic;
    }
    fixedWalls-bottom
    {
        type            zeroGradient;
    }
    fixedWalls-top
    {
        type            symmetry;
    }
    frontAndBack
    {
        type            empty;
    }
}


// ************************************************************************* //
