# Residuals   
# Time        	p             	Ux            	Uy            
0             	N/A	N/A
1             	9.999964e-01	0.000000e+00	0.000000e+00
2             	1.000000e+00	9.946020e-01	1.000000e+00
3             	1.963661e-01	2.037905e-01	6.667808e-01
4             	1.279871e-01	4.928530e-02	4.219198e-01
5             	1.362410e-01	6.003116e-02	6.570130e-01
6             	2.559275e-01	7.898929e-02	5.738050e-01
7             	3.969980e-01	9.354185e-02	5.271588e-01
8             	3.802768e-01	1.023745e-01	5.464019e-01
9             	2.862220e-01	1.478682e-01	5.444114e-01
10            	2.681176e-01	1.397593e-01	4.780372e-01
11            	2.905930e-01	1.171776e-01	4.132437e-01
12            	1.872831e-01	6.448519e-02	4.123155e-01
13            	3.633786e-01	4.065945e-02	3.708647e-01
14            	3.160340e-01	2.950530e-02	4.198608e-01
15            	2.218908e-01	2.385339e-02	4.734688e-01
16            	1.100678e-01	2.087187e-02	4.266535e-01
17            	8.327783e-02	1.752342e-02	3.974164e-01
18            	1.656926e-01	1.503533e-02	3.191779e-01
19            	2.521148e-01	1.397452e-02	3.285902e-01
20            	1.995640e-01	1.267549e-02	3.520003e-01
21            	8.751280e-02	1.176847e-02	3.516331e-01
22            	6.818306e-02	1.088292e-02	3.229026e-01
23            	4.923375e-02	1.038420e-02	2.486968e-01
24            	4.010674e-02	9.925015e-03	1.914645e-01
25            	3.299359e-02	9.647893e-03	1.853432e-01
26            	3.353862e-02	9.355656e-03	1.687375e-01
27            	4.033793e-02	9.098191e-03	1.470350e-01
28            	5.485358e-02	8.850743e-03	1.263705e-01
29            	2.039860e-02	8.618235e-03	1.109206e-01
30            	1.529971e-02	8.381257e-03	9.381731e-02
31            	1.023332e-02	8.157319e-03	7.283082e-02
32            	6.690980e-03	7.951123e-03	5.888082e-02
33            	4.863357e-03	7.734832e-03	5.185111e-02
34            	3.669172e-03	7.429925e-03	4.608418e-02
35            	3.276961e-03	7.125366e-03	4.073150e-02
36            	2.861872e-03	6.851627e-03	3.560553e-02
37            	3.231425e-03	6.628625e-03	3.162983e-02
38            	2.365466e-03	6.448921e-03	2.979494e-02
39            	1.835575e-03	6.277015e-03	2.920399e-02
40            	2.357881e-03	6.112910e-03	2.725533e-02
41            	2.110208e-03	5.963580e-03	2.533928e-02
42            	1.782547e-03	5.826310e-03	2.625039e-02
43            	3.013102e-03	5.709003e-03	2.849598e-02
44            	1.271991e-03	5.602512e-03	2.590993e-02
45            	1.042550e-03	5.495440e-03	2.589322e-02
46            	2.404689e-03	5.401020e-03	2.616048e-02
47            	2.396597e-03	5.313298e-03	2.768599e-02
48            	1.460216e-03	5.226200e-03	2.694302e-02
49            	2.651143e-03	5.152403e-03	2.539606e-02
50            	1.629060e-03	5.076172e-03	2.436268e-02
51            	2.248636e-03	5.005624e-03	2.375956e-02
52            	2.000809e-03	4.942622e-03	2.318461e-02
53            	2.277020e-03	4.877985e-03	2.417159e-02
54            	2.335778e-03	4.822470e-03	2.347538e-02
55            	2.697840e-03	4.763938e-03	2.491065e-02
56            	2.612644e-03	4.714769e-03	2.330203e-02
57            	3.206767e-03	4.664658e-03	2.480773e-02
58            	2.842861e-03	4.617374e-03	2.314099e-02
59            	3.656123e-03	4.572631e-03	2.478039e-02
60            	3.078724e-03	4.528288e-03	2.354915e-02
61            	4.026739e-03	4.485220e-03	2.605924e-02
62            	3.362764e-03	4.445061e-03	2.405963e-02
63            	4.508514e-03	4.404476e-03	2.666477e-02
64            	3.710941e-03	4.366427e-03	2.405170e-02
65            	5.020908e-03	4.328640e-03	2.686091e-02
66            	4.077028e-03	4.292384e-03	2.347419e-02
67            	5.474217e-03	4.256034e-03	2.674144e-02
68            	4.423900e-03	4.221113e-03	2.265665e-02
69            	5.910709e-03	4.185312e-03	2.656680e-02
70            	4.861241e-03	4.151566e-03	2.168373e-02
71            	6.725741e-03	4.119517e-03	2.967570e-02
72            	5.530035e-03	4.090700e-03	2.613727e-02
73            	7.609468e-03	4.061267e-03	3.000272e-02
74            	6.074945e-03	4.032980e-03	2.557296e-02
75            	8.282173e-03	4.002764e-03	2.876454e-02
76            	6.569048e-03	3.974394e-03	2.402762e-02
77            	8.924452e-03	3.944630e-03	2.817098e-02
78            	7.073898e-03	3.916730e-03	2.318387e-02
79            	9.705054e-03	3.887458e-03	2.774264e-02
80            	7.698035e-03	3.859487e-03	2.271026e-02
81            	1.069224e-02	3.830163e-03	2.770888e-02
82            	8.487741e-03	3.803168e-03	2.243202e-02
83            	1.184142e-02	3.774845e-03	2.732471e-02
84            	8.927612e-03	3.748253e-03	2.305079e-02
85            	1.363929e-02	3.720070e-03	3.646803e-02
86            	9.880656e-03	3.693573e-03	2.399096e-02
87            	1.539677e-02	3.667549e-03	2.869750e-02
88            	1.221863e-02	3.642528e-03	2.240032e-02
89            	1.545191e-02	3.616801e-03	2.757859e-02
90            	1.259503e-02	3.592969e-03	2.026089e-02
91            	8.725181e-03	3.564820e-03	2.498214e-02
92            	1.532390e-02	3.548127e-03	3.329102e-02
93            	2.669487e-02	3.514134e-03	2.682157e-02
94            	1.183995e-02	3.491523e-03	3.103964e-02
95            	6.104260e-03	3.477925e-03	3.376285e-02
96            	1.697371e-02	3.448401e-03	1.484510e-02
97            	8.015380e-03	3.416132e-03	4.560469e-02
98            	7.710217e-03	3.401958e-03	2.459075e-02
99            	2.533296e-02	3.378885e-03	3.229141e-02
100           	2.172389e-02	3.359111e-03	3.773759e-02
101           	4.990475e-03	3.336386e-03	2.133642e-02
102           	1.442415e-03	3.308380e-03	2.934271e-02
103           	8.706897e-04	3.287173e-03	3.542478e-02
104           	8.908443e-04	3.265265e-03	3.260373e-02
105           	8.980725e-04	3.245156e-03	2.880742e-02
106           	8.636887e-04	3.224846e-03	2.540848e-02
107           	7.574366e-04	3.205653e-03	2.246956e-02
108           	6.121864e-04	3.186867e-03	2.056555e-02
109           	4.952349e-04	3.169009e-03	1.989623e-02
110           	4.320408e-04	3.151812e-03	1.994616e-02
111           	3.960076e-04	3.135390e-03	2.018310e-02
112           	3.410638e-04	3.119572e-03	2.031701e-02
113           	3.044507e-04	3.104110e-03	1.998458e-02
114           	2.742775e-04	3.089062e-03	1.964901e-02
115           	2.574626e-04	3.074299e-03	1.937776e-02
116           	2.469164e-04	3.060023e-03	1.935354e-02
117           	2.414217e-04	3.045903e-03	1.918625e-02
118           	2.917088e-04	3.032179e-03	1.930466e-02
119           	2.668744e-04	3.019350e-03	1.934435e-02
120           	2.591156e-04	3.007016e-03	1.949968e-02
121           	2.512282e-04	2.994880e-03	1.935842e-02
122           	2.321520e-04	2.983099e-03	1.917642e-02
123           	2.165807e-04	2.971614e-03	1.881989e-02
124           	2.112129e-04	2.960452e-03	1.889950e-02
125           	2.785643e-04	2.949548e-03	1.906214e-02
126           	2.708633e-04	2.939019e-03	1.927130e-02
127           	2.454633e-04	2.928786e-03	1.915903e-02
128           	2.403015e-04	2.918822e-03	1.911120e-02
129           	2.399543e-04	2.909124e-03	1.890859e-02
130           	2.258813e-04	2.900002e-03	1.884301e-02
131           	2.116678e-04	2.891035e-03	1.864664e-02
132           	2.199140e-04	2.882274e-03	1.874689e-02
133           	2.975877e-04	2.873808e-03	1.907100e-02
134           	2.769326e-04	2.865606e-03	1.930773e-02
135           	2.592579e-04	2.857616e-03	1.910110e-02
136           	2.491272e-04	2.849792e-03	1.908859e-02
137           	2.512352e-04	2.842054e-03	1.896891e-02
138           	2.385875e-04	2.834443e-03	1.897665e-02
139           	2.206641e-04	2.827208e-03	1.871094e-02
140           	3.231138e-04	2.820608e-03	1.888923e-02
141           	3.132276e-04	2.814215e-03	1.905005e-02
142           	3.015351e-04	2.808008e-03	1.912490e-02
143           	2.759024e-04	2.801941e-03	1.881027e-02
144           	2.657567e-04	2.795962e-03	1.884655e-02
145           	2.554409e-04	2.789989e-03	1.876773e-02
146           	2.464158e-04	2.784060e-03	1.880188e-02
147           	2.300846e-04	2.778165e-03	1.863321e-02
148           	3.776598e-04	2.772464e-03	1.885882e-02
149           	3.510356e-04	2.767110e-03	1.899653e-02
150           	3.343427e-04	2.762336e-03	1.906467e-02
151           	3.087218e-04	2.757616e-03	1.873030e-02
152           	3.015952e-04	2.752968e-03	1.863262e-02
153           	2.878560e-04	2.748310e-03	1.846321e-02
154           	2.788316e-04	2.743730e-03	1.846541e-02
155           	3.864042e-04	2.739237e-03	1.843378e-02
156           	3.895239e-04	2.734986e-03	1.886129e-02
157           	3.710089e-04	2.730781e-03	1.892763e-02
158           	3.538154e-04	2.726432e-03	1.882948e-02
159           	3.263008e-04	2.722768e-03	1.850626e-02
160           	3.076713e-04	2.719315e-03	1.849205e-02
161           	2.949684e-04	2.715859e-03	1.839413e-02
162           	2.816568e-04	2.712456e-03	1.846964e-02
163           	4.779561e-04	2.709141e-03	1.856744e-02
164           	4.384137e-04	2.705979e-03	1.876843e-02
165           	3.936887e-04	2.702724e-03	1.868318e-02
166           	3.718499e-04	2.699330e-03	1.854546e-02
167           	3.462907e-04	2.695823e-03	1.848675e-02
168           	3.387818e-04	2.693024e-03	1.830804e-02
169           	3.268020e-04	2.690397e-03	1.832425e-02
170           	4.222683e-04	2.687825e-03	1.812073e-02
171           	4.894472e-04	2.685394e-03	1.827326e-02
172           	4.545793e-04	2.683068e-03	1.841620e-02
173           	4.078405e-04	2.680500e-03	1.858817e-02
174           	3.985068e-04	2.677838e-03	1.838159e-02
175           	3.895066e-04	2.675137e-03	1.833780e-02
176           	3.953905e-04	2.672491e-03	1.811061e-02
177           	3.475627e-04	2.670342e-03	1.778767e-02
178           	6.138449e-04	2.668661e-03	1.792800e-02
179           	5.252520e-04	2.667060e-03	1.832624e-02
180           	4.973012e-04	2.665414e-03	1.837822e-02
181           	4.496283e-04	2.663549e-03	1.821916e-02
182           	4.401209e-04	2.661637e-03	1.783121e-02
183           	3.793152e-04	2.659715e-03	1.791456e-02
184           	3.743333e-04	2.657868e-03	1.783490e-02
185           	3.761479e-04	2.656056e-03	1.782737e-02
186           	6.621266e-04	2.654527e-03	1.759561e-02
187           	5.732965e-04	2.653646e-03	1.792166e-02
188           	5.649815e-04	2.652564e-03	1.769910e-02
189           	4.651488e-04	2.651343e-03	1.746635e-02
190           	4.416469e-04	2.650109e-03	1.713367e-02
191           	5.673578e-04	2.648918e-03	1.718995e-02
192           	5.254892e-04	2.647808e-03	1.677246e-02
193           	8.608769e-04	2.646771e-03	1.647382e-02
194           	8.084735e-04	2.645393e-03	1.638087e-02
195           	6.769281e-04	2.644665e-03	1.618332e-02
196           	6.334930e-04	2.644165e-03	1.589831e-02
197           	5.462188e-04	2.643561e-03	1.582395e-02
198           	5.309967e-04	2.642931e-03	1.555511e-02
199           	4.988649e-04	2.642313e-03	1.519928e-02
200           	5.615928e-04	2.641758e-03	1.486498e-02
201           	8.100321e-04	2.641321e-03	1.451786e-02
202           	7.188229e-04	2.639847e-03	1.448076e-02
203           	6.532924e-04	2.639165e-03	1.438783e-02
204           	6.876374e-04	2.639127e-03	1.414013e-02
205           	8.233758e-04	2.639124e-03	1.397157e-02
206           	7.997954e-04	2.639150e-03	1.359242e-02
207           	7.101797e-04	2.639206e-03	1.319156e-02
208           	1.093034e-03	2.639376e-03	1.287578e-02
209           	9.352434e-04	2.638951e-03	1.293719e-02
210           	8.529787e-04	2.638062e-03	1.282931e-02
211           	7.670425e-04	2.637516e-03	1.259766e-02
212           	7.496003e-04	2.638062e-03	1.225073e-02
213           	6.438510e-04	2.638594e-03	1.193764e-02
214           	6.246825e-04	2.639166e-03	1.170241e-02
215           	1.502978e-03	2.639867e-03	1.181266e-02
216           	1.248297e-03	2.640413e-03	1.177693e-02
217           	1.178769e-03	2.640076e-03	1.168274e-02
218           	1.097589e-03	2.639871e-03	1.149337e-02
219           	9.584502e-04	2.639862e-03	1.122153e-02
220           	9.103707e-04	2.640563e-03	1.096174e-02
221           	8.372913e-04	2.641694e-03	1.072239e-02
222           	1.086654e-03	2.642880e-03	1.042316e-02
223           	1.063934e-03	2.644112e-03	1.025554e-02
224           	1.700279e-03	2.644344e-03	1.062383e-02
225           	1.435587e-03	2.644652e-03	1.064829e-02
226           	1.408873e-03	2.645169e-03	1.052386e-02
227           	1.285560e-03	2.645873e-03	1.030792e-02
228           	1.217325e-03	2.646752e-03	1.007766e-02
229           	1.080582e-03	2.648159e-03	9.817169e-03
230           	1.518437e-03	2.649987e-03	9.589649e-03
231           	1.313481e-03	2.650699e-03	9.480921e-03
232           	2.225445e-03	2.651475e-03	9.867438e-03
233           	1.898946e-03	2.652493e-03	9.922122e-03
234           	1.858085e-03	2.653718e-03	9.857336e-03
235           	1.675809e-03	2.655100e-03	9.649854e-03
236           	1.594327e-03	2.656617e-03	9.430439e-03
237           	1.926622e-03	2.657806e-03	9.232207e-03
238           	1.802979e-03	2.658982e-03	9.161436e-03
239           	1.670535e-03	2.660201e-03	9.126138e-03
240           	2.991970e-03	2.661677e-03	9.466314e-03
241           	2.744461e-03	2.663395e-03	9.486850e-03
242           	2.637482e-03	2.665276e-03	9.459246e-03
243           	3.118658e-03	2.666362e-03	9.335762e-03
244           	2.862301e-03	2.667208e-03	9.222255e-03
245           	2.610191e-03	2.668805e-03	9.198631e-03
246           	2.534792e-03	2.670498e-03	9.078917e-03
247           	2.429835e-03	2.672395e-03	8.977162e-03
248           	4.831452e-03	2.674536e-03	9.316990e-03
249           	4.500216e-03	2.676887e-03	9.315072e-03
250           	5.921693e-03	2.676455e-03	9.380635e-03
251           	5.821061e-03	2.677794e-03	9.299995e-03
252           	5.816401e-03	2.679849e-03	9.261140e-03
253           	4.970691e-03	2.682057e-03	9.128451e-03
254           	4.970962e-03	2.684484e-03	8.913265e-03
255           	5.085330e-03	2.687092e-03	8.704740e-03
256           	1.735123e-02	2.689188e-03	9.140871e-03
257           	1.641225e-02	2.687232e-03	9.207871e-03
258           	2.472412e-02	2.689547e-03	9.328600e-03
259           	1.947955e-02	2.692074e-03	9.210009e-03
260           	1.735840e-02	2.694828e-03	8.973148e-03
261           	9.363953e-03	2.697782e-03	8.744020e-03
262           	6.589861e-03	2.700917e-03	8.611814e-03
263           	7.467450e-03	2.699391e-03	8.534649e-03
264           	9.636785e-03	2.701127e-03	8.854020e-03
265           	7.349069e-03	2.703240e-03	9.007642e-03
266           	5.915637e-03	2.706126e-03	9.028285e-03
267           	4.871919e-03	2.709198e-03	8.816863e-03
268           	4.065619e-03	2.712449e-03	8.652840e-03
269           	4.458395e-03	2.713062e-03	8.537045e-03
270           	3.603872e-03	2.715474e-03	8.458837e-03
271           	5.372557e-03	2.717854e-03	8.775226e-03
272           	4.285504e-03	2.720638e-03	8.774919e-03
273           	3.483048e-03	2.723834e-03	8.734013e-03
274           	2.955900e-03	2.727267e-03	8.559373e-03
275           	2.933498e-03	2.730144e-03	8.407589e-03
276           	2.413439e-03	2.733373e-03	8.356383e-03
277           	2.042376e-03	2.736392e-03	8.180095e-03
278           	3.422280e-03	2.739589e-03	8.383335e-03
279           	2.678315e-03	2.743000e-03	8.300781e-03
280           	2.275134e-03	2.746563e-03	8.207044e-03
281           	2.415748e-03	2.750278e-03	8.099653e-03
282           	1.823685e-03	2.753819e-03	8.010677e-03
283           	2.980550e-03	2.757202e-03	8.196845e-03
284           	2.305117e-03	2.760641e-03	8.031999e-03
285           	2.306326e-03	2.764161e-03	7.998200e-03
286           	2.620758e-03	2.767759e-03	8.145325e-03
287           	2.233995e-03	2.771047e-03	7.853082e-03
288           	2.795491e-03	2.774191e-03	7.993702e-03
289           	1.903798e-03	2.776551e-03	7.617554e-03
290           	1.430619e-03	2.777766e-03	7.484093e-03
291           	1.081880e-03	2.778197e-03	7.330323e-03
292           	9.036593e-04	2.778715e-03	7.189088e-03
293           	8.056476e-04	2.778855e-03	7.084309e-03
294           	6.923990e-04	2.778755e-03	6.962997e-03
295           	6.073941e-04	2.778501e-03	6.838632e-03
296           	5.172871e-04	2.778151e-03	6.731075e-03
297           	4.521530e-04	2.777743e-03	6.619843e-03
298           	4.287390e-04	2.777301e-03	6.512562e-03
299           	3.896857e-04	2.777008e-03	6.400498e-03
300           	3.573123e-04	2.776821e-03	6.313968e-03
301           	3.327101e-04	2.776613e-03	6.240851e-03
302           	3.227153e-04	2.776390e-03	6.132580e-03
303           	3.031240e-04	2.776160e-03	6.058754e-03
304           	2.935018e-04	2.775926e-03	5.937511e-03
305           	2.754824e-04	2.775694e-03	5.856288e-03
306           	2.703591e-04	2.775462e-03	5.751316e-03
307           	2.570870e-04	2.775236e-03	5.658722e-03
308           	2.524839e-04	2.775014e-03	5.552230e-03
309           	2.446837e-04	2.774801e-03	5.457539e-03
310           	2.445264e-04	2.774593e-03	5.352273e-03
311           	2.386956e-04	2.774395e-03	5.258343e-03
312           	2.377704e-04	2.774204e-03	5.149090e-03
313           	2.275291e-04	2.774022e-03	5.056340e-03
314           	2.279746e-04	2.773847e-03	4.952396e-03
315           	2.268069e-04	2.773682e-03	4.848866e-03
316           	2.234920e-04	2.773524e-03	4.744592e-03
317           	2.202095e-04	2.773376e-03	4.653380e-03
318           	2.166934e-04	2.773234e-03	4.549752e-03
319           	2.153689e-04	2.773102e-03	4.458317e-03
320           	2.175286e-04	2.772977e-03	4.354191e-03
321           	2.116023e-04	2.772860e-03	4.266834e-03
322           	2.173862e-04	2.772751e-03	4.160756e-03
323           	2.165626e-04	2.772649e-03	4.078447e-03
324           	2.198803e-04	2.772554e-03	3.963407e-03
325           	2.125895e-04	2.772466e-03	3.870713e-03
326           	2.131826e-04	2.772384e-03	3.766481e-03
327           	2.053300e-04	2.772308e-03	3.679477e-03
328           	2.011095e-04	2.772239e-03	3.576817e-03
329           	1.995328e-04	2.772181e-03	3.503535e-03
330           	1.991446e-04	2.772172e-03	3.405778e-03
331           	1.950910e-04	2.772166e-03	3.327357e-03
332           	1.855715e-04	2.772164e-03	3.240172e-03
333           	1.786104e-04	2.772166e-03	3.177609e-03
334           	1.726190e-04	2.772170e-03	3.099937e-03
335           	1.756922e-04	2.772178e-03	3.038108e-03
336           	1.698364e-04	2.772189e-03	2.963030e-03
337           	1.671554e-04	2.772202e-03	2.901054e-03
338           	1.639153e-04	2.772218e-03	2.825806e-03
339           	1.614553e-04	2.772238e-03	2.767994e-03
340           	1.585332e-04	2.772259e-03	2.700399e-03
341           	1.553894e-04	2.772284e-03	2.651529e-03
342           	1.506178e-04	2.772310e-03	2.584453e-03
343           	1.462180e-04	2.772339e-03	2.538802e-03
344           	1.416166e-04	2.772370e-03	2.477390e-03
345           	1.380164e-04	2.772403e-03	2.434344e-03
346           	1.359767e-04	2.772438e-03	2.376816e-03
347           	1.347230e-04	2.772475e-03	2.333491e-03
348           	1.321367e-04	2.772513e-03	2.280644e-03
349           	1.312485e-04	2.772553e-03	2.240478e-03
350           	1.306233e-04	2.772595e-03	2.185454e-03
351           	1.295419e-04	2.772638e-03	2.149144e-03
352           	1.297016e-04	2.772682e-03	2.099304e-03
353           	1.263223e-04	2.772728e-03	2.066024e-03
354           	1.235504e-04	2.772775e-03	2.021075e-03
355           	1.234125e-04	2.772823e-03	1.992034e-03
356           	1.174995e-04	2.772872e-03	1.948955e-03
357           	1.180786e-04	2.772922e-03	1.923867e-03
358           	1.125798e-04	2.772973e-03	1.888266e-03
359           	1.112372e-04	2.773024e-03	1.866973e-03
360           	1.102821e-04	2.773077e-03	1.831407e-03
361           	1.081556e-04	2.773130e-03	1.814101e-03
362           	1.124075e-04	2.773183e-03	1.782906e-03
363           	1.060592e-04	2.773237e-03	1.772043e-03
364           	1.022383e-04	2.773291e-03	1.755936e-03
365           	1.047601e-04	2.773346e-03	1.749587e-03
366           	1.013545e-04	2.773401e-03	1.727489e-03
367           	1.057880e-04	2.773456e-03	1.724792e-03
368           	1.122608e-04	2.773512e-03	1.709399e-03
369           	1.091300e-04	2.773567e-03	1.707582e-03
370           	1.037688e-04	2.773623e-03	1.698615e-03
371           	9.651127e-05	2.773679e-03	1.691977e-03
372           	9.087559e-05	2.773735e-03	1.691458e-03
373           	9.275944e-05	2.773792e-03	1.689137e-03
374           	8.479432e-05	2.773848e-03	1.678820e-03
375           	9.137160e-05	2.773904e-03	1.682405e-03
376           	8.163531e-05	2.773960e-03	1.664720e-03
377           	9.559974e-05	2.774016e-03	1.672713e-03
378           	1.023525e-04	2.774071e-03	1.653007e-03
379           	7.252597e-05	2.774127e-03	1.633724e-03
380           	8.128300e-05	2.774181e-03	1.651295e-03
381           	1.068441e-04	2.774237e-03	1.660444e-03
382           	8.728011e-05	2.774291e-03	1.625122e-03
383           	7.488693e-05	2.774345e-03	1.635158e-03
384           	1.017213e-04	2.774399e-03	1.650611e-03
385           	8.787904e-05	2.774453e-03	1.631434e-03
386           	7.100965e-05	2.774506e-03	1.616344e-03
387           	9.633302e-05	2.774558e-03	1.639106e-03
388           	9.621320e-05	2.774611e-03	1.620526e-03
389           	7.123537e-05	2.774663e-03	1.615452e-03
390           	1.144699e-04	2.774763e-03	1.630953e-03
391           	4.419135e-03	2.788413e-03	1.617235e-03
392           	4.874023e-03	2.799526e-03	1.653263e-03
393           	1.022770e-02	2.851911e-03	2.421758e-03
394           	4.124606e-03	2.773225e-03	7.654022e-03
395           	1.904757e-03	2.835496e-03	4.065126e-03
396           	2.119117e-03	2.769975e-03	3.629215e-03
397           	7.434305e-03	2.814385e-03	2.381092e-03
398           	5.788775e-03	2.831155e-03	3.196621e-03
399           	3.544789e-03	2.778855e-03	5.162751e-03
400           	9.086564e-03	2.853517e-03	4.098427e-03
401           	9.756760e-03	2.773742e-03	4.930973e-03
402           	9.229788e-03	2.862402e-03	3.304400e-03
403           	6.060244e-03	2.771639e-03	1.185048e-03
404           	3.674517e-03	2.863507e-03	3.630666e-03
405           	3.903066e-03	2.771673e-03	1.673069e-03
406           	6.871005e-03	2.864028e-03	5.138383e-03
407           	2.969084e-03	2.771649e-03	1.320310e-03
408           	6.531876e-03	2.863600e-03	3.547589e-03
409           	6.005588e-03	2.771855e-03	2.791720e-03
410           	1.406693e-02	2.863321e-03	4.454208e-03
411           	4.277416e-03	2.771967e-03	1.680232e-03
412           	5.026979e-03	2.862994e-03	2.976901e-03
413           	3.125830e-03	2.772120e-03	1.734240e-03
414           	2.217211e-02	2.862496e-03	4.000742e-03
415           	1.134533e-02	2.772297e-03	1.888022e-03
416           	6.974700e-03	2.862259e-03	3.744935e-03
417           	2.126399e-03	2.772467e-03	2.181337e-03
418           	6.447990e-03	2.862039e-03	2.028999e-03
419           	2.679813e-02	2.772635e-03	4.096268e-03
420           	2.808840e-02	2.861817e-03	3.630544e-03
421           	2.199995e-02	2.772821e-03	5.798440e-03
422           	5.863390e-03	2.861523e-03	3.263497e-03
423           	9.675713e-04	2.773038e-03	4.961248e-03
424           	2.295866e-03	2.861401e-03	2.747739e-03
425           	2.177084e-03	2.773253e-03	1.701847e-03
426           	2.159097e-03	2.861199e-03	1.065384e-03
427           	4.053617e-03	2.773438e-03	5.273366e-03
428           	1.227612e-02	2.861109e-03	2.943464e-03
429           	9.124119e-03	2.773582e-03	1.953978e-03
430           	7.519741e-03	2.860684e-03	2.970040e-03
431           	2.177711e-03	2.773796e-03	2.857346e-03
432           	5.098181e-03	2.860585e-03	1.079741e-03
433           	6.958222e-02	2.773958e-03	4.594947e-03
434           	1.119416e-02	2.860430e-03	1.874376e-03
435           	2.775875e-03	2.774161e-03	4.796611e-03
436           	1.256218e-03	2.860316e-03	5.565760e-03
437           	2.276403e-03	2.774331e-03	3.322987e-03
438           	5.120229e-03	2.860114e-03	2.538895e-03
439           	4.252750e-02	2.774541e-03	5.081840e-03
440           	1.362623e-02	2.859875e-03	2.218773e-03
441           	3.636757e-03	2.774723e-03	3.531886e-03
442           	1.014313e-03	2.859817e-03	5.381920e-03
443           	1.482396e-03	2.774911e-03	3.677018e-03
444           	2.999572e-03	2.859563e-03	9.935767e-04
445           	1.731567e-03	2.775087e-03	3.824482e-03
446           	1.659698e-03	2.859566e-03	3.101736e-03
447           	3.282642e-03	2.775283e-03	3.055430e-03
448           	5.372256e-03	2.859240e-03	1.718374e-03
449           	8.289864e-03	2.775458e-03	1.813974e-03
450           	6.960031e-03	2.859316e-03	1.875868e-03
451           	2.879664e-03	2.775256e-03	1.730991e-03
452           	2.659122e-03	2.859681e-03	1.645372e-03
453           	4.006952e-03	2.775707e-03	2.032182e-03
454           	2.529410e-03	2.860018e-03	1.724965e-03
455           	1.768024e-03	2.775933e-03	1.681537e-03
456           	2.201364e-03	2.860022e-03	1.436370e-03
457           	8.356811e-04	2.776253e-03	1.397009e-03
458           	3.138175e-03	2.860118e-03	1.218550e-03
459           	3.771001e-03	2.776509e-03	3.146080e-03
460           	2.205411e-03	2.860098e-03	2.747103e-03
461           	3.613765e-03	2.776801e-03	2.031519e-03
462           	1.062296e-03	2.860108e-03	3.035535e-03
463           	1.569771e-03	2.777065e-03	2.442251e-03
464           	2.687441e-03	2.860097e-03	1.209190e-03
465           	2.073469e-03	2.777319e-03	2.736224e-03
466           	4.376122e-03	2.860093e-03	1.575063e-03
467           	2.763035e-03	2.777577e-03	2.718396e-03
468           	1.414549e-03	2.860182e-03	2.458742e-03
469           	1.956183e-03	2.777835e-03	3.487506e-03
470           	4.096626e-03	2.860190e-03	2.534768e-03
471           	3.666622e-03	2.778115e-03	2.845131e-03
472           	2.354739e-03	2.860225e-03	3.673746e-03
473           	5.252621e-03	2.778353e-03	1.831047e-03
474           	7.972509e-03	2.860210e-03	1.565692e-03
475           	3.760128e-03	2.778595e-03	3.149494e-03
476           	2.081879e-03	2.860269e-03	3.162083e-03
477           	3.068894e-03	2.778859e-03	3.085111e-03
478           	3.308287e-03	2.860375e-03	2.668361e-03
479           	2.261182e-03	2.779105e-03	2.843717e-03
480           	3.204445e-03	2.860375e-03	1.998380e-03
481           	5.842204e-03	2.774270e-03	2.019161e-03
482           	1.612522e-02	2.842436e-03	2.253728e-03
483           	1.328335e-02	2.849615e-03	1.961581e-03
484           	2.341573e-03	2.772133e-03	3.444400e-03
485           	1.605780e-03	2.832761e-03	4.408080e-03
486           	5.342990e-03	2.839162e-03	2.650185e-03
487           	2.995441e-03	2.774135e-03	7.448075e-03
488           	5.281913e-03	2.829083e-03	3.272121e-03
489           	1.095631e-02	2.841282e-03	1.859230e-03
490           	4.043371e-03	2.773683e-03	6.373043e-03
491           	4.449072e-03	2.828329e-03	3.478715e-03
492           	1.688730e-03	2.839279e-03	1.940201e-03
493           	2.353687e-03	2.773774e-03	1.685894e-03
494           	2.576102e-03	2.826449e-03	1.667089e-03
495           	5.163276e-03	2.838449e-03	1.787334e-03
496           	8.461321e-03	2.773933e-03	3.326925e-03
497           	8.786248e-03	2.825079e-03	2.916339e-03
498           	6.273526e-03	2.837585e-03	2.160613e-03
499           	5.713025e-03	2.774092e-03	2.949022e-03
500           	3.715945e-03	2.823590e-03	2.439245e-03
501           	6.048869e-03	2.836662e-03	1.941661e-03
502           	1.050897e-02	2.774258e-03	4.386180e-03
503           	8.119180e-03	2.821952e-03	3.071991e-03
504           	1.560932e-03	2.835741e-03	3.782521e-03
505           	1.300950e-03	2.774452e-03	3.933205e-03
506           	2.054908e-03	2.820280e-03	2.595400e-03
507           	1.407227e-03	2.834901e-03	1.577073e-03
508           	1.208856e-03	2.775139e-03	2.317910e-03
509           	2.618307e-03	2.818765e-03	2.338074e-03
510           	3.701988e-03	2.834074e-03	2.513900e-03
511           	1.947944e-03	2.776245e-03	3.593678e-03
512           	1.694040e-03	2.805824e-03	3.684450e-03
513           	3.499601e-03	2.809321e-03	2.813276e-03
514           	1.614571e-03	2.859267e-03	2.032819e-03
515           	2.169108e-03	2.772151e-03	1.917866e-03
516           	1.259971e-03	2.816836e-03	3.471926e-03
517           	2.519396e-03	2.802479e-03	2.829343e-03
518           	3.501130e-03	2.858660e-03	2.109085e-03
519           	6.626239e-03	2.773179e-03	3.309961e-03
520           	4.307854e-03	2.817496e-03	3.278703e-03
521           	4.174058e-03	2.801385e-03	2.874515e-03
522           	1.477496e-03	2.856966e-03	2.863770e-03
523           	8.492065e-04	2.774490e-03	2.953910e-03
524           	5.911497e-04	2.817969e-03	2.294884e-03
525           	5.200863e-04	2.787611e-03	2.062643e-03
526           	4.737399e-03	2.819991e-03	2.341045e-03
527           	3.474849e-03	2.847915e-03	1.694689e-03
528           	1.329650e-03	2.776835e-03	1.860646e-03
529           	6.553808e-04	2.816441e-03	2.147969e-03
530           	6.738913e-04	2.788331e-03	2.434265e-03
531           	6.544471e-04	2.800618e-03	2.678292e-03
532           	2.035335e-03	2.811919e-03	3.327791e-03
533           	1.974420e-03	2.853726e-03	2.989520e-03
534           	2.991531e-03	2.777780e-03	2.329226e-03
535           	1.758619e-03	2.819696e-03	2.171832e-03
536           	7.861845e-04	2.789351e-03	2.415786e-03
537           	6.859769e-04	2.802836e-03	2.507456e-03
538           	6.409701e-04	2.796034e-03	2.549912e-03
539           	5.712643e-04	2.800120e-03	2.520885e-03
540           	5.612170e-04	2.798473e-03	2.490479e-03
541           	4.949778e-04	2.799898e-03	2.468400e-03
542           	4.285954e-04	2.799628e-03	2.466613e-03
543           	3.708327e-04	2.800269e-03	2.467074e-03
544           	3.217833e-04	2.800404e-03	2.470762e-03
545           	2.811269e-04	2.800814e-03	2.475833e-03
546           	2.538267e-04	2.801072e-03	2.478561e-03
547           	2.244263e-04	2.801414e-03	2.484220e-03
548           	2.054724e-04	2.801711e-03	2.485748e-03
549           	1.917512e-04	2.802034e-03	2.484299e-03
550           	1.894612e-04	2.802344e-03	2.480950e-03
551           	1.829431e-04	2.802664e-03	2.477025e-03
552           	1.753596e-04	2.802980e-03	2.473972e-03
553           	1.711357e-04	2.803301e-03	2.471360e-03