/*--------------------------------*- C++ -*----------------------------------*\
  =========                 |
  \\      /  F ield         | OpenFOAM: The Open Source CFD Toolbox
   \\    /   O peration     | Website:  https://openfoam.org
    \\  /    A nd           | Version:  10
     \\/     M anipulation  |
\*---------------------------------------------------------------------------*/
FoamFile
{
    format      ascii;
    class       volScalarField;
    location    "5000";
    object      nut;
}
// * * * * * * * * * * * * * * * * * * * * * * * * * * * * * * * * * * * * * //

dimensions      [0 2 -1 0 0 0 0];

internalField   nonuniform List<scalar> 
400
(
2.118e-09
2.11807e-09
2.11792e-09
2.11793e-09
3.63018e-07
3.63032e-07
3.63007e-07
3.63007e-07
6.55186e-06
6.55219e-06
6.55176e-06
6.55177e-06
3.34282e-05
3.34295e-05
3.34272e-05
3.34273e-05
8.32216e-05
8.32216e-05
8.32153e-05
8.3216e-05
0.000143537
0.000143535
0.000143526
0.000143526
0.000211799
0.000211795
0.000211782
0.000211782
0.000287211
0.000287205
0.000287189
0.000287189
0.000368206
0.000368199
0.000368182
0.000368182
0.00045349
0.000453484
0.000453466
0.000453468
0.000541999
0.000541993
0.000541976
0.000541979
0.000632927
0.000632921
0.000632903
0.000632907
0.00072568
0.00072567
0.000725648
0.000725652
0.000819792
0.000819771
0.000819745
0.000819752
0.000914805
0.000914774
0.000914754
0.000914782
0.00101009
0.00101008
0.00101011
0.00101021
0.00110496
0.00110495
0.00110499
0.00110518
0.00120083
0.00120082
0.00120087
0.00120107
0.00129772
0.00129771
0.00129776
0.00129798
0.00139566
0.00139566
0.00139571
0.00139593
0.00149471
0.00149471
0.00149477
0.00149498
0.00159492
0.00159492
0.001595
0.00159517
0.00169633
0.00169635
0.00169644
0.00169655
0.00179901
0.00179902
0.00179914
0.00179918
0.00190299
0.00190301
0.00190312
0.00190308
0.00200658
0.00200659
0.00200657
0.00200648
0.00210999
0.00211002
0.00210997
0.00210985
0.00221359
0.00221364
0.0022136
0.00221348
0.00231758
0.00231764
0.00231764
0.00231752
0.00242208
0.00242214
0.00242216
0.00242206
0.00252711
0.00252715
0.00252719
0.00252711
0.00263263
0.00263266
0.00263271
0.00263264
0.00273858
0.00273861
0.00273865
0.00273858
0.00284486
0.00284489
0.00284493
0.00284485
0.00295135
0.00295138
0.00295142
0.00295134
0.00305792
0.00305796
0.00305799
0.0030579
0.00316442
0.00316447
0.0031645
0.0031644
0.00327076
0.00327081
0.00327084
0.00327074
0.00337683
0.00337689
0.00337693
0.00337682
0.00348265
0.00348271
0.00348277
0.00348265
0.00358835
0.00358842
0.00358848
0.00358835
0.00369425
0.00369433
0.0036944
0.00369425
0.00380094
0.00380103
0.0038011
0.00380092
0.00390933
0.00390943
0.00390948
0.00390927
0.00402069
0.00402078
0.00402078
0.00402058
0.0041366
0.00413663
0.00413656
0.00413644
0.00425877
0.00425869
0.00425854
0.00425864
0.00438867
0.00438843
0.00438825
0.00438873
0.00452687
0.0045265
0.00452635
0.00452735
0.00467192
0.00467155
0.00467153
0.00467303
0.00481885
0.00481866
0.0048188
0.00482039
0.00495711
0.00495714
0.00495731
0.00495785
0.00506832
0.00506809
0.00506788
0.00506516
0.0051676
0.00516735
0.00516716
0.0051645
0.00526404
0.00526377
0.0052636
0.00526098
0.00535739
0.00535709
0.00535693
0.00535436
0.00544737
0.00544702
0.00544687
0.00544436
0.00553357
0.00553318
0.00553303
0.00553059
0.00561563
0.00561523
0.00561508
0.00561272
0.00569329
0.00569291
0.00569277
0.00569051
0.00576634
0.00576606
0.0057659
0.00576378
0.00583465
0.00583463
0.00583439
0.00583242
0.00589845
0.00589849
0.00589824
0.00589642
0.00595766
0.00595769
0.00595749
0.00595582
0.00601234
0.00601235
0.00601221
0.00601069
0.00606261
0.00606257
0.00606249
0.00606112
0.00610859
0.00610847
0.00610843
0.00610722
0.00615024
0.00615016
0.00615012
0.00614908
0.00618772
0.00618769
0.00618765
0.00618679
0.00622114
0.00622115
0.00622111
0.00622043
0.00625057
0.00625063
0.0062506
0.00625009
0.00627613
0.00627623
0.00627619
0.00627586
0.00629791
0.00629804
0.006298
0.00629785
0.00631606
0.00631616
0.00631619
0.00631616
0.00633063
0.00633073
0.00633082
0.00633094
0.00634179
0.00634186
0.00634206
0.00634236
0.00634971
0.00634992
0.00635001
0.00635059
0.00635459
0.0063548
0.00635496
0.00635583
0.00635656
0.00635716
0.00635698
0.0063583
0.0063561
0.00635681
0.00635658
0.00635818
0.00635334
0.00635414
0.00635386
0.00635577
0.00634859
0.00634945
0.0063492
0.0063513
0.00634212
0.00634298
0.00634272
0.00634512
0.00633433
0.00633501
0.00633498
0.00633744
0.00632569
0.00632575
0.0063263
0.00632857
0.00631586
0.00631574
0.00631695
0.00631882
0.00630552
0.00630553
0.00630675
0.00630864
0.00629497
0.00629533
0.00629618
0.00629828
0.00628451
0.0062843
0.00628589
0.00628801
0.00627441
0.00627409
0.0062757
0.00627811
0.00626491
0.00626456
0.00626597
0.00626884
0.00625619
0.00625609
0.00625699
0.00626038
0.00624835
0.00624828
0.00624957
0.00625276
0.00624146
0.00624233
0.00624273
0.00624639
0.00623683
0.00623635
0.00623796
0.00624105
0.00623268
0.00623248
0.00623378
0.00623712
0.00622941
0.00623029
0.00623065
0.00623448
0.00622852
0.00622795
0.00622953
0.00623287
0.0062279
0.00622794
0.00622893
0.00623253
0.0062281
0.00622939
0.00622987
0.00623319
)
;

boundaryField
{
    inlet
    {
        type            cyclic;
    }
    outlet
    {
        type            cyclic;
    }
    fixedWalls-bottom
    {
        type            nutkWallFunction;
        Cmu             0.09;
        kappa           0.41;
        E               9.8;
        value           uniform 0;
    }
    fixedWalls-top
    {
        type            symmetry;
    }
    frontAndBack
    {
        type            empty;
    }
}


// ************************************************************************* //
