/*--------------------------------*- C++ -*----------------------------------*\
  =========                 |
  \\      /  F ield         | OpenFOAM: The Open Source CFD Toolbox
   \\    /   O peration     | Website:  https://openfoam.org
    \\  /    A nd           | Version:  10
     \\/     M anipulation  |
\*---------------------------------------------------------------------------*/
FoamFile
{
    format      ascii;
    class       surfaceScalarField;
    location    "5000";
    object      phi;
}
// * * * * * * * * * * * * * * * * * * * * * * * * * * * * * * * * * * * * * //

dimensions      [0 3 -1 0 0 0 0];

internalField   nonuniform List<scalar> 
696
(
0.000515082
-4.3119e-09
0.000515081
1.05008e-09
0.000515077
4.24462e-09
-1.04896e-09
0.00156801
-1.69402e-08
0.001568
4.85798e-09
0.00156799
1.68742e-08
-4.85505e-09
0.00263285
-3.71202e-08
0.00263284
1.25365e-08
0.00263282
3.70569e-08
-1.2532e-08
0.00361417
-6.08334e-08
0.00361416
2.47007e-08
0.00361414
6.07711e-08
-2.46952e-08
0.00442725
-8.23975e-08
0.00442724
3.76294e-08
0.00442721
8.23372e-08
-3.76231e-08
0.00508779
-9.87695e-08
0.00508778
4.87434e-08
0.00508777
9.87099e-08
-4.87364e-08
0.00564058
-1.09095e-07
0.00564057
5.79475e-08
0.00564056
1.09037e-07
-5.794e-08
0.00611731
-1.13568e-07
0.0061173
6.58953e-08
0.00611729
1.1351e-07
-6.58874e-08
0.00653934
-1.12935e-07
0.00653934
7.36049e-08
0.00653934
1.12879e-07
-7.35967e-08
0.0069215
-1.0805e-07
0.00692149
8.20036e-08
0.0069215
1.07993e-07
-8.19951e-08
0.00727411
-9.94848e-08
0.00727411
9.16395e-08
0.00727411
9.94295e-08
-9.16307e-08
0.00760454
-8.71451e-08
0.00760452
1.02423e-07
0.00760454
8.709e-08
-1.02413e-07
0.00791807
-7.01849e-08
0.00791806
1.1341e-07
0.00791808
7.01307e-08
-1.13401e-07
0.00821866
-4.76145e-08
0.00821865
1.22817e-07
0.00821867
4.75604e-08
-1.22808e-07
0.00850924
-1.98979e-08
0.00850924
1.28936e-07
0.00850926
1.98447e-08
-1.28926e-07
0.00879215
7.92215e-09
0.00879214
1.32814e-07
0.00879217
-7.97515e-09
-1.32804e-07
0.00906922
2.98827e-08
0.00906922
1.35554e-07
0.00906924
-2.99349e-08
-1.35543e-07
0.00934187
4.43245e-08
0.00934187
1.36522e-07
0.00934188
-4.43765e-08
-1.36512e-07
0.00961113
5.18519e-08
0.00961113
1.35315e-07
0.00961113
-5.19032e-08
-1.35304e-07
0.00987785
5.31364e-08
0.00987785
1.3183e-07
0.00987785
-5.31875e-08
-1.31819e-07
0.0101427
4.89421e-08
0.0101427
1.26286e-07
0.0101427
-4.89924e-08
-1.26275e-07
0.0104064
4.01614e-08
0.0104064
1.1929e-07
0.0104064
-4.02115e-08
-1.19279e-07
0.0106693
2.79282e-08
0.0106693
1.11782e-07
0.0106693
-2.79776e-08
-1.11771e-07
0.0109319
1.34276e-08
0.0109319
1.04923e-07
0.0109319
-1.34768e-08
-1.04912e-07
0.0111946
-1.68768e-09
0.0111946
9.95691e-08
0.0111946
1.63915e-09
-9.95576e-08
0.0114577
-1.43963e-08
0.0114577
9.44553e-08
0.0114577
1.43479e-08
-9.44436e-08
0.0117215
-2.24801e-08
0.0117215
8.82879e-08
0.0117215
2.24324e-08
-8.82761e-08
0.0119865
-2.6169e-08
0.0119865
8.17512e-08
0.0119865
2.61215e-08
-8.17393e-08
0.0122528
-2.66922e-08
0.0122528
7.57386e-08
0.0122528
2.66454e-08
-7.57265e-08
0.0125207
-2.54067e-08
0.0125207
7.07426e-08
0.0125207
2.53602e-08
-7.07305e-08
0.0127903
-2.33875e-08
0.0127903
6.68236e-08
0.0127903
2.33416e-08
-6.68114e-08
0.0130618
-2.12879e-08
0.0130618
6.37936e-08
0.0130618
2.12422e-08
-6.37813e-08
0.0133355
-1.93929e-08
0.0133355
6.13937e-08
0.0133355
1.93479e-08
-6.13812e-08
0.0136114
-1.77386e-08
0.0136114
5.94136e-08
0.0136114
1.76938e-08
-5.94011e-08
0.0138898
-1.62393e-08
0.0138898
5.77214e-08
0.0138898
1.61952e-08
-5.77088e-08
0.0141707
-1.47877e-08
0.0141707
5.62563e-08
0.0141707
1.47438e-08
-5.62435e-08
0.0144543
-1.33143e-08
0.0144543
5.49938e-08
0.0144543
1.32711e-08
-5.4981e-08
0.0147407
-1.18146e-08
0.0147407
5.39363e-08
0.0147407
1.17716e-08
-5.39234e-08
0.0150301
-1.0343e-08
0.0150301
5.3105e-08
0.0150301
1.03006e-08
-5.3092e-08
0.0153225
-8.98416e-09
0.0153225
5.25642e-08
0.0153225
8.94201e-09
-5.25512e-08
0.0156181
-7.79615e-09
0.0156181
5.2429e-08
0.0156181
7.75463e-09
-5.24159e-08
0.015917
-6.73672e-09
0.015917
5.28627e-08
0.015917
6.69547e-09
-5.28495e-08
0.0162192
-5.58973e-09
0.0162192
5.40005e-08
0.0162192
5.5491e-09
-5.39872e-08
0.0165249
-3.94719e-09
0.0165249
5.58157e-08
0.0165249
3.90683e-09
-5.58024e-08
0.016834
-1.32114e-09
0.016834
5.79156e-08
0.016834
1.2814e-09
-5.79023e-08
0.0171467
2.53023e-09
0.0171467
5.93699e-08
0.0171467
-2.56969e-09
-5.93565e-08
0.0174628
7.0634e-09
0.0174628
5.86857e-08
0.0174628
-7.10225e-09
-5.86723e-08
0.0177825
1.03203e-08
0.0177825
5.41215e-08
0.0177825
-1.03588e-08
-5.41081e-08
0.0181055
8.59292e-09
0.0181055
4.44154e-08
0.0181055
-8.63087e-09
-4.4402e-08
0.018432
-3.03061e-09
0.0184321
2.97491e-08
0.018432
2.99297e-09
-2.97357e-08
0.018762
-2.84708e-08
0.018762
1.22977e-08
0.018762
2.84337e-08
-1.22843e-08
0.0190956
-6.62143e-08
0.0190956
-4.74416e-09
0.0190956
6.61776e-08
4.7576e-09
0.0194331
-1.02355e-07
0.0194332
-2.08992e-08
0.0194331
1.02319e-07
2.09126e-08
0.019775
-1.27071e-07
0.019775
-3.65255e-08
0.019775
1.27035e-07
3.6539e-08
0.0201212
-1.42499e-07
0.0201213
-5.04252e-08
0.0201212
1.42463e-07
5.04387e-08
0.020472
-1.50434e-07
0.020472
-6.1898e-08
0.020472
1.50399e-07
6.19115e-08
0.0208274
-1.52393e-07
0.0208274
-7.07071e-08
0.0208274
1.52359e-07
7.07205e-08
0.0211876
-1.49684e-07
0.0211876
-7.69443e-08
0.0211876
1.4965e-07
7.69577e-08
0.0215525
-1.43408e-07
0.0215525
-8.0846e-08
0.0215525
1.43375e-07
8.08594e-08
0.0219223
-1.34515e-07
0.0219223
-8.26444e-08
0.0219224
1.34482e-07
8.26578e-08
0.0222972
-1.23818e-07
0.0222972
-8.24384e-08
0.0222972
1.23785e-07
8.24518e-08
0.0226771
-1.11883e-07
0.0226771
-8.00017e-08
0.0226771
1.11851e-07
8.0015e-08
0.0230622
-9.91522e-08
0.0230622
-7.52628e-08
0.0230622
9.91207e-08
7.52761e-08
0.0234526
-8.61493e-08
0.0234526
-6.85486e-08
0.0234526
8.61182e-08
6.85619e-08
0.0238484
-7.33941e-08
0.0238484
-6.02151e-08
0.0238484
7.33636e-08
6.02282e-08
0.0242495
-6.1323e-08
0.0242495
-5.06759e-08
0.0242496
6.1293e-08
5.0689e-08
0.0246562
-5.02041e-08
0.0246562
-4.04993e-08
0.0246562
5.01748e-08
4.05123e-08
0.0250685
-4.00985e-08
0.0250685
-3.01426e-08
0.0250685
4.00696e-08
3.01556e-08
0.0254864
-3.09568e-08
0.0254864
-1.98111e-08
0.0254864
3.09285e-08
1.9824e-08
0.0259101
-2.27234e-08
0.02591
-9.65055e-09
0.02591
2.26957e-08
9.66328e-09
0.0263394
-1.52934e-08
0.0263394
2.45651e-10
0.0263394
1.52664e-08
-2.33064e-10
0.0267747
-8.50892e-09
0.0267747
9.79162e-09
0.0267747
8.48237e-09
-9.77913e-09
0.0272158
-2.18463e-09
0.0272157
1.88692e-08
0.0272158
2.1588e-09
-1.88569e-08
0.0276628
3.84331e-09
0.0276627
2.73762e-08
0.0276628
-3.86859e-09
-2.7364e-08
0.0281157
9.66255e-09
0.0281157
3.53008e-08
0.0281157
-9.68707e-09
-3.52888e-08
0.0285746
1.51216e-08
0.0285746
4.26994e-08
0.0285746
-1.51455e-08
-4.26876e-08
0.0290395
2.02185e-08
0.0290395
4.95586e-08
0.0290395
-2.02416e-08
-4.9547e-08
0.0295105
2.4815e-08
0.0295105
5.58277e-08
0.0295105
-2.48375e-08
-5.58163e-08
0.0299874
2.89233e-08
0.0299874
6.14971e-08
0.0299874
-2.89449e-08
-6.14859e-08
0.0304703
3.28601e-08
0.0304703
6.65645e-08
0.0304703
-3.2881e-08
-6.65535e-08
0.0309593
3.66128e-08
0.0309592
7.09666e-08
0.0309593
-3.66329e-08
-7.09559e-08
0.0314541
4.02206e-08
0.0314541
7.46641e-08
0.0314541
-4.02398e-08
-7.46538e-08
0.0319549
4.36433e-08
0.0319549
7.74847e-08
0.0319549
-4.36616e-08
-7.74747e-08
0.0324616
4.66935e-08
0.0324616
7.91348e-08
0.0324616
-4.6711e-08
-7.91251e-08
0.032974
4.89683e-08
0.032974
7.92392e-08
0.032974
-4.89848e-08
-7.92299e-08
0.0334921
4.99995e-08
0.0334921
7.82794e-08
0.0334921
-5.0015e-08
-7.82705e-08
0.0340159
4.99864e-08
0.0340159
7.71578e-08
0.0340159
-5.00008e-08
-7.71494e-08
0.0345451
4.99668e-08
0.0345451
7.58579e-08
0.0345451
-4.99802e-08
-7.58499e-08
0.0350796
4.96554e-08
0.0350796
7.43688e-08
0.0350796
-4.96677e-08
-7.43613e-08
0.0356194
4.80286e-08
0.0356194
7.25319e-08
0.0356194
-4.80399e-08
-7.25249e-08
0.0361642
4.50303e-08
0.0361642
6.96547e-08
0.0361642
-4.50405e-08
-6.96482e-08
0.0367138
4.10294e-08
0.0367139
6.49996e-08
0.0367138
-4.10384e-08
-6.49938e-08
0.0372681
3.62919e-08
0.0372681
5.89327e-08
0.0372681
-3.62997e-08
-5.89275e-08
0.0378268
3.14581e-08
0.0378268
5.22152e-08
0.0378268
-3.14647e-08
-5.22107e-08
0.0383897
2.6541e-08
0.0383897
4.48329e-08
0.0383897
-2.65464e-08
-4.48291e-08
0.0389565
2.11692e-08
0.0389565
3.67084e-08
0.0389565
-2.11734e-08
-3.67053e-08
0.039527
1.59387e-08
0.039527
2.80957e-08
0.039527
-1.59417e-08
-2.80934e-08
0.0401008
1.07038e-08
0.0401008
1.90421e-08
0.0401008
-1.07055e-08
-1.90406e-08
0.0406776
5.29926e-09
0.0406776
9.55069e-09
0.0406776
-5.29978e-09
-9.55017e-09
0.041257
0.041257
0.041257
)
;

boundaryField
{
    inlet
    {
        type            cyclic;
        value           nonuniform List<scalar> 
100
(
-0.041257
-0.0406775
-0.0401007
-0.039527
-0.0389565
-0.0383897
-0.0378268
-0.0372681
-0.0367138
-0.0361642
-0.0356194
-0.0350796
-0.0345451
-0.0340159
-0.0334921
-0.032974
-0.0324616
-0.0319549
-0.0314541
-0.0309593
-0.0304703
-0.0299874
-0.0295105
-0.0290395
-0.0285746
-0.0281157
-0.0276628
-0.0272158
-0.0267747
-0.0263395
-0.0259101
-0.0254864
-0.0250685
-0.0246562
-0.0242496
-0.0238484
-0.0234526
-0.0230623
-0.0226771
-0.0222972
-0.0219224
-0.0215525
-0.0211876
-0.0208274
-0.020472
-0.0201212
-0.019775
-0.0194331
-0.0190956
-0.018762
-0.018432
-0.0181055
-0.0177825
-0.0174628
-0.0171467
-0.016834
-0.0165249
-0.0162192
-0.015917
-0.0156181
-0.0153225
-0.0150301
-0.0147407
-0.0144543
-0.0141707
-0.0138898
-0.0136114
-0.0133355
-0.0130618
-0.0127903
-0.0125207
-0.0122528
-0.0119865
-0.0117215
-0.0114576
-0.0111946
-0.0109319
-0.0106693
-0.0104064
-0.0101427
-0.00987785
-0.00961113
-0.00934188
-0.00906924
-0.00879218
-0.00850927
-0.00821868
-0.00791809
-0.00760455
-0.00727412
-0.0069215
-0.00653934
-0.0061173
-0.00564057
-0.00508778
-0.00442723
-0.00361415
-0.00263283
-0.00156799
-0.000515078
)
;
    }
    outlet
    {
        type            cyclic;
        value           nonuniform List<scalar> 
100
(
0.041257
0.0406775
0.0401007
0.039527
0.0389565
0.0383897
0.0378268
0.0372681
0.0367138
0.0361642
0.0356194
0.0350796
0.0345451
0.0340159
0.0334921
0.032974
0.0324616
0.0319549
0.0314541
0.0309593
0.0304703
0.0299874
0.0295105
0.0290395
0.0285746
0.0281157
0.0276628
0.0272158
0.0267747
0.0263395
0.0259101
0.0254864
0.0250685
0.0246562
0.0242496
0.0238484
0.0234526
0.0230623
0.0226771
0.0222972
0.0219224
0.0215525
0.0211876
0.0208274
0.020472
0.0201212
0.019775
0.0194331
0.0190956
0.018762
0.018432
0.0181055
0.0177825
0.0174628
0.0171467
0.016834
0.0165249
0.0162192
0.015917
0.0156181
0.0153225
0.0150301
0.0147407
0.0144543
0.0141707
0.0138898
0.0136114
0.0133355
0.0130618
0.0127903
0.0125207
0.0122528
0.0119865
0.0117215
0.0114576
0.0111946
0.0109319
0.0106693
0.0104064
0.0101427
0.00987785
0.00961113
0.00934188
0.00906924
0.00879218
0.00850927
0.00821868
0.00791809
0.00760455
0.00727412
0.0069215
0.00653934
0.0061173
0.00564057
0.00508778
0.00442723
0.00361415
0.00263283
0.00156799
0.000515078
)
;
    }
    fixedWalls-bottom
    {
        type            calculated;
        value           uniform 0;
    }
    fixedWalls-top
    {
        type            symmetry;
        value           uniform 0;
    }
    frontAndBack
    {
        type            empty;
        value           nonuniform List<scalar> 0();
    }
}


// ************************************************************************* //
