/*--------------------------------*- C++ -*----------------------------------*\
  =========                 |
  \\      /  F ield         | OpenFOAM: The Open Source CFD Toolbox
   \\    /   O peration     | Website:  https://openfoam.org
    \\  /    A nd           | Version:  10
     \\/     M anipulation  |
\*---------------------------------------------------------------------------*/
FoamFile
{
    format      ascii;
    class       volScalarField;
    location    "2500";
    object      k;
}
// * * * * * * * * * * * * * * * * * * * * * * * * * * * * * * * * * * * * * //

dimensions      [0 2 -2 0 0 0 0];

internalField   nonuniform List<scalar> 
400
(
4.49433e-10
4.49017e-10
4.48874e-10
4.49073e-10
1.34827e-08
1.34703e-08
1.34659e-08
1.34719e-08
9.54823e-08
9.53938e-08
9.53632e-08
9.54056e-08
3.47133e-07
3.4681e-07
3.46699e-07
3.46853e-07
8.98189e-07
8.97352e-07
8.97065e-07
8.97464e-07
1.90215e-06
1.90038e-06
1.89977e-06
1.90061e-06
3.53503e-06
3.53173e-06
3.5306e-06
3.53216e-06
5.99541e-06
5.98982e-06
5.98791e-06
5.99054e-06
9.50501e-06
9.49616e-06
9.49313e-06
9.49728e-06
1.43093e-05
1.4296e-05
1.42914e-05
1.42976e-05
2.06774e-05
2.06582e-05
2.06516e-05
2.06604e-05
2.89009e-05
2.88741e-05
2.88649e-05
2.88771e-05
3.92903e-05
3.92541e-05
3.92415e-05
3.92579e-05
5.21682e-05
5.21204e-05
5.21037e-05
5.2125e-05
6.78585e-05
6.77969e-05
6.77752e-05
6.78023e-05
8.66724e-05
8.65947e-05
8.65668e-05
8.66006e-05
0.00010889
0.000108794
0.000108759
0.000108801
0.000134743
0.000134627
0.000134584
0.000134633
0.000164394
0.000164257
0.000164204
0.000164262
0.000197923
0.000197764
0.000197701
0.000197769
0.000235317
0.000235138
0.000235062
0.00023514
0.000276466
0.000276269
0.000276181
0.000276269
0.000321167
0.000320955
0.000320853
0.000320951
0.000369123
0.000368902
0.000368786
0.000368894
0.000419957
0.000419732
0.000419602
0.000419719
0.000473204
0.000472982
0.000472838
0.000472963
0.0005283
0.000528092
0.000527933
0.000528065
0.000584561
0.000584376
0.000584204
0.00058434
0.000641241
0.000641083
0.0006409
0.000641039
0.000697927
0.0006978
0.000697608
0.000697748
0.000754205
0.000754112
0.000753913
0.000754052
0.000809688
0.000809629
0.000809428
0.000809562
0.000864014
0.000863991
0.000863789
0.000863917
0.000916845
0.000916861
0.000916659
0.000916776
0.00096786
0.000967919
0.000967718
0.000967822
0.00101716
0.00101725
0.00101705
0.00101714
0.00106516
0.00106529
0.00106507
0.00106517
0.00111218
0.00111233
0.0011121
0.0011122
0.00115841
0.00115857
0.00115833
0.00115843
0.00120398
0.00120414
0.00120389
0.00120401
0.00124897
0.00124913
0.00124886
0.00124899
0.00129339
0.00129355
0.00129326
0.00129341
0.00133724
0.00133739
0.0013371
0.00133727
0.0013805
0.00138064
0.00138033
0.00138053
0.00142311
0.00142325
0.00142292
0.00142314
0.00146502
0.00146514
0.0014648
0.00146505
0.00150616
0.00150626
0.00150589
0.00150618
0.00154643
0.00154651
0.00154612
0.00154645
0.00158574
0.0015858
0.00158538
0.00158576
0.00162401
0.00162403
0.00162358
0.00162402
0.00166111
0.00166109
0.00166061
0.00166111
0.00169691
0.00169688
0.00169635
0.00169692
0.00173131
0.00173125
0.00173067
0.00173132
0.00176416
0.00176408
0.00176345
0.00176419
0.00179533
0.00179522
0.00179453
0.00179536
0.00182467
0.00182453
0.00182377
0.00182471
0.00185201
0.00185184
0.00185102
0.00185206
0.00187719
0.00187697
0.00187609
0.00187724
0.00190001
0.00189976
0.0018988
0.00190008
0.00192029
0.00192001
0.00191897
0.00192038
0.00193783
0.00193751
0.0019364
0.00193793
0.0019524
0.00195204
0.00195086
0.00195253
0.00196379
0.00196339
0.00196214
0.00196394
0.00197175
0.00197131
0.00197
0.00197193
0.00197603
0.00197556
0.00197419
0.00197625
0.00197637
0.00197587
0.00197445
0.00197664
0.00197251
0.00197199
0.00197053
0.00197282
0.00196417
0.00196364
0.00196215
0.00196454
0.00195108
0.00195054
0.00194904
0.00195151
0.00193297
0.00193244
0.00193094
0.00193346
0.00190958
0.00190906
0.00190756
0.00191011
0.00188063
0.00188014
0.00187865
0.00188118
0.00184587
0.00184541
0.00184395
0.00184643
0.00180503
0.00180463
0.00180319
0.00180556
0.00175783
0.00175749
0.00175607
0.00175828
0.00170392
0.00170364
0.00170222
0.00170421
0.00164277
0.00164256
0.00164111
0.00164281
0.00157425
0.00157408
0.0015726
0.00157408
0.00149872
0.00149859
0.00149706
0.00149837
0.00141665
0.00141654
0.00141495
0.00141613
0.00132861
0.0013285
0.00132685
0.00132793
0.00123519
0.00123508
0.00123336
0.00123436
0.00113719
0.00113706
0.00113527
0.00113621
0.00103579
0.00103561
0.00103375
0.00103466
0.000932777
0.000932607
0.000930748
0.000931561
0.000830883
0.000830756
0.000828971
0.000829652
0.000732539
0.000732477
0.00073082
0.000731349
0.00063969
0.000639695
0.000638205
0.000638582
0.000553859
0.000553928
0.000552627
0.000552866
0.00047613
0.000476255
0.000475145
0.000475273
0.000407083
0.000407251
0.000406316
0.000406367
0.000346811
0.000347007
0.000346223
0.000346228
0.00029506
0.00029527
0.000294611
0.000294594
0.000251399
0.00025161
0.000251048
0.000251034
0.000215315
0.00021552
0.000215031
0.000215034
0.000186265
0.000186457
0.000186028
0.000186051
0.000163722
0.000163899
0.000163516
0.000163558
0.000147219
0.00014738
0.000147034
0.000147092
0.000136388
0.000136538
0.000136216
0.000136286
0.000130997
0.000131141
0.000130831
0.000130908
)
;

boundaryField
{
    inlet
    {
        type            cyclic;
    }
    outlet
    {
        type            cyclic;
    }
    fixedWalls-bottom
    {
        type            kqRWallFunction;
        value           nonuniform List<scalar> 4(4.49433e-10 4.49017e-10 4.48874e-10 4.49073e-10);
    }
    fixedWalls-top
    {
        type            symmetry;
    }
    frontAndBack
    {
        type            empty;
    }
}


// ************************************************************************* //
