/*--------------------------------*- C++ -*----------------------------------*\
  =========                 |
  \\      /  F ield         | OpenFOAM: The Open Source CFD Toolbox
   \\    /   O peration     | Website:  https://openfoam.org
    \\  /    A nd           | Version:  10
     \\/     M anipulation  |
\*---------------------------------------------------------------------------*/
FoamFile
{
    format      ascii;
    class       volScalarField;
    location    "2500";
    object      nut;
}
// * * * * * * * * * * * * * * * * * * * * * * * * * * * * * * * * * * * * * //

dimensions      [0 2 -1 0 0 0 0];

internalField   nonuniform List<scalar> 
400
(
2.09948e-15
2.09754e-15
2.09687e-15
2.0978e-15
3.68178e-13
3.67838e-13
3.67721e-13
3.67884e-13
7.75108e-12
7.74391e-12
7.74144e-12
7.74488e-12
5.99937e-11
5.99381e-11
5.99189e-11
5.99456e-11
2.74475e-10
2.74219e-10
2.74132e-10
2.74254e-10
9.16386e-10
9.1553e-10
9.15238e-10
9.1565e-10
2.48637e-09
2.48404e-09
2.48325e-09
2.48438e-09
5.82955e-09
5.82404e-09
5.82219e-09
5.82487e-09
1.22708e-08
1.22591e-08
1.22553e-08
1.2261e-08
2.37886e-08
2.37658e-08
2.37584e-08
2.37697e-08
4.32539e-08
4.3212e-08
4.31985e-08
4.32198e-08
7.47839e-08
7.471e-08
7.4687e-08
7.47249e-08
1.24291e-07
1.24164e-07
1.24127e-07
1.24192e-07
2.00344e-07
2.00131e-07
2.00071e-07
2.00179e-07
3.15517e-07
3.15159e-07
3.15065e-07
3.1524e-07
4.88473e-07
4.8787e-07
4.87726e-07
4.88006e-07
7.47192e-07
7.46169e-07
7.45951e-07
7.4639e-07
1.13395e-06
1.13221e-06
1.13188e-06
1.13256e-06
1.7131e-06
1.71008e-06
1.70958e-06
1.71066e-06
2.5831e-06
2.57786e-06
2.5771e-06
2.57883e-06
3.89558e-06
3.88644e-06
3.88526e-06
3.88806e-06
5.88512e-06
5.86917e-06
5.86729e-06
5.87194e-06
8.91628e-06
8.88841e-06
8.88531e-06
8.89329e-06
1.3557e-05
1.35085e-05
1.35037e-05
1.35172e-05
2.06917e-05
2.06084e-05
2.06006e-05
2.06237e-05
3.1689e-05
3.15494e-05
3.1535e-05
3.15755e-05
4.86352e-05
4.84092e-05
4.8379e-05
4.84527e-05
7.07786e-05
7.07558e-05
7.07351e-05
7.07516e-05
7.83459e-05
7.83265e-05
7.83042e-05
7.83212e-05
8.60396e-05
8.6024e-05
8.60003e-05
8.60176e-05
9.38332e-05
9.38216e-05
9.37969e-05
9.38142e-05
0.000101683
0.000101676
0.000101651
0.000101668
0.000109548
0.000109546
0.00010952
0.000109536
0.000117388
0.00011739
0.000117364
0.000117379
0.000125162
0.00012517
0.000125144
0.000125157
0.000132884
0.000132897
0.00013287
0.000132883
0.000140614
0.00014063
0.000140602
0.000140615
0.000148394
0.000148413
0.000148383
0.000148396
0.000156256
0.000156278
0.000156245
0.00015626
0.000164226
0.000164248
0.000164214
0.00016423
0.00017232
0.000172342
0.000172306
0.000172324
0.000180549
0.000180572
0.000180533
0.000180554
0.000188923
0.000188945
0.000188903
0.000188927
0.000197445
0.000197466
0.000197422
0.00019745
0.00020612
0.00020614
0.000206093
0.000206124
0.000214948
0.000214966
0.000214915
0.000214952
0.000223929
0.000223944
0.00022389
0.000223933
0.000233061
0.000233073
0.000233015
0.000233065
0.000242341
0.00024235
0.000242287
0.000242345
0.000251766
0.00025177
0.000251701
0.000251769
0.00026133
0.000261328
0.000261252
0.000261331
0.000271022
0.000271016
0.000270933
0.000271024
0.000280837
0.000280827
0.000280734
0.000280839
0.000290764
0.00029075
0.000290646
0.000290767
0.00030079
0.000300771
0.000300656
0.000300795
0.000310902
0.000310877
0.000310749
0.000310908
0.000321082
0.000321051
0.000320909
0.000321089
0.00033131
0.000331272
0.000331115
0.000331319
0.000341562
0.000341518
0.000341345
0.000341574
0.000351813
0.00035176
0.00035157
0.000351827
0.000362029
0.000361968
0.000361761
0.000362047
0.000372176
0.000372107
0.000371881
0.000372199
0.000382213
0.000382134
0.000381889
0.00038224
0.000392091
0.000392002
0.00039174
0.000392125
0.000401756
0.000401659
0.000401379
0.000401799
0.000411148
0.000411042
0.000410745
0.000411201
0.000420198
0.000420085
0.000419773
0.000420263
0.000428827
0.000428709
0.000428383
0.000428907
0.000436952
0.000436829
0.000436492
0.000437047
0.000444475
0.00044435
0.000444004
0.000444586
0.000451292
0.000451166
0.000450813
0.000451417
0.000457283
0.00045716
0.000456802
0.00045742
0.000462317
0.0004622
0.000461838
0.00046246
0.000466242
0.000466135
0.000465769
0.000466382
0.000468879
0.000468785
0.000468414
0.000469002
0.00047
0.000469924
0.000469542
0.000470086
0.000469302
0.000469243
0.00046884
0.000469321
0.000466541
0.000466496
0.000466069
0.000466497
0.000461594
0.00046156
0.000461104
0.000461492
0.000454345
0.00045432
0.000453827
0.000454185
0.000444685
0.000444666
0.00044413
0.000444465
0.000432491
0.000432474
0.000431888
0.000432204
0.000417356
0.000417306
0.000416622
0.000416972
0.000353294
0.00034892
0.000341783
0.000349398
0.000223304
0.00022111
0.000216992
0.000221039
0.000147221
0.000146155
0.000143634
0.000145883
9.98385e-05
9.93988e-05
9.78342e-05
9.90725e-05
6.93612e-05
6.92958e-05
6.8328e-05
6.89845e-05
4.96097e-05
4.95743e-05
4.90114e-05
4.93398e-05
3.66013e-05
3.65884e-05
3.62566e-05
3.64097e-05
2.78933e-05
2.78963e-05
2.76872e-05
2.77598e-05
2.18077e-05
2.18184e-05
2.16659e-05
2.17118e-05
1.7327e-05
1.7341e-05
1.72176e-05
1.72583e-05
1.39672e-05
1.39828e-05
1.38801e-05
1.39219e-05
1.14698e-05
1.14855e-05
1.13984e-05
1.14427e-05
9.64098e-06
9.65552e-06
9.58068e-06
9.62704e-06
8.34138e-06
8.35417e-06
8.28868e-06
8.33659e-06
7.47108e-06
7.48203e-06
7.42346e-06
7.47242e-06
6.96415e-06
6.97359e-06
6.91959e-06
6.96924e-06
6.78168e-06
6.79007e-06
6.73804e-06
6.78833e-06
)
;

boundaryField
{
    inlet
    {
        type            cyclic;
    }
    outlet
    {
        type            cyclic;
    }
    fixedWalls-bottom
    {
        type            nutkWallFunction;
        Cmu             0.09;
        kappa           0.41;
        E               9.8;
        value           uniform 0;
    }
    fixedWalls-top
    {
        type            symmetry;
    }
    frontAndBack
    {
        type            empty;
    }
}


// ************************************************************************* //
