/*--------------------------------*- C++ -*----------------------------------*\
  =========                 |
  \\      /  F ield         | OpenFOAM: The Open Source CFD Toolbox
   \\    /   O peration     | Website:  https://openfoam.org
    \\  /    A nd           | Version:  10
     \\/     M anipulation  |
\*---------------------------------------------------------------------------*/
FoamFile
{
    format      ascii;
    class       volScalarField;
    location    "2500";
    object      p;
}
// * * * * * * * * * * * * * * * * * * * * * * * * * * * * * * * * * * * * * //

dimensions      [0 2 -2 0 0 0 0];

internalField   nonuniform List<scalar> 
400
(
-1.80592e-10
5.7774e-07
-1.05665e-08
-5.9136e-07
-5.28089e-10
5.7725e-07
-1.03842e-08
-5.90869e-07
-8.24408e-10
5.76722e-07
-1.01702e-08
-5.9034e-07
-1.10326e-09
5.76267e-07
-9.96146e-09
-5.89883e-07
-1.37115e-09
5.75876e-07
-9.75568e-09
-5.89491e-07
-1.63066e-09
5.75542e-07
-9.54891e-09
-5.89154e-07
-1.88707e-09
5.75262e-07
-9.34126e-09
-5.8887e-07
-2.13731e-09
5.7504e-07
-9.13338e-09
-5.88644e-07
-2.38517e-09
5.74875e-07
-8.92639e-09
-5.88475e-07
-2.62746e-09
5.74771e-07
-8.72073e-09
-5.88366e-07
-2.86766e-09
5.74726e-07
-8.51752e-09
-5.88316e-07
-3.10236e-09
5.74744e-07
-8.31718e-09
-5.88327e-07
-3.3344e-09
5.7482e-07
-8.12097e-09
-5.88398e-07
-3.56013e-09
5.74958e-07
-7.92921e-09
-5.88528e-07
-3.78201e-09
5.75152e-07
-7.7431e-09
-5.88716e-07
-3.99661e-09
5.75402e-07
-7.56267e-09
-5.88958e-07
-4.20643e-09
5.757e-07
-7.38881e-09
-5.89248e-07
-4.40886e-09
5.76039e-07
-7.22079e-09
-5.89579e-07
-4.60757e-09
5.764e-07
-7.05817e-09
-5.89931e-07
-4.80279e-09
5.76758e-07
-6.89748e-09
-5.90281e-07
-5.0024e-09
5.77064e-07
-6.73397e-09
-5.90577e-07
-5.21385e-09
5.77241e-07
-6.55705e-09
-5.90745e-07
-5.45784e-09
5.77163e-07
-6.34901e-09
-5.90658e-07
-5.77581e-09
5.76595e-07
-6.06546e-09
-5.90079e-07
-6.27815e-09
5.74953e-07
-5.59885e-09
-5.88428e-07
-7.16084e-09
5.71133e-07
-4.75041e-09
-5.84598e-07
-8.46045e-09
5.64707e-07
-3.48616e-09
-5.78161e-07
-9.21704e-09
5.60176e-07
-2.76334e-09
-5.7362e-07
-9.09576e-09
5.59374e-07
-2.91946e-09
-5.72808e-07
-8.80629e-09
5.59107e-07
-3.24232e-09
-5.72529e-07
-8.50248e-09
5.5868e-07
-3.58044e-09
-5.72092e-07
-8.15066e-09
5.58248e-07
-3.9651e-09
-5.71649e-07
-7.72347e-09
5.57928e-07
-4.4259e-09
-5.71319e-07
-7.20461e-09
5.57748e-07
-4.97691e-09
-5.71128e-07
-6.57849e-09
5.57714e-07
-5.63586e-09
-5.71083e-07
-5.8339e-09
5.57796e-07
-6.41186e-09
-5.71154e-07
-4.96982e-09
5.5792e-07
-7.3079e-09
-5.71268e-07
-3.99068e-09
5.58017e-07
-8.31761e-09
-5.71355e-07
-2.90979e-09
5.58032e-07
-9.42953e-09
-5.7136e-07
-1.73963e-09
5.57919e-07
-1.06294e-08
-5.71236e-07
-4.91262e-10
5.57635e-07
-1.19078e-08
-5.70942e-07
8.26172e-10
5.57142e-07
-1.32539e-08
-5.70439e-07
2.20261e-09
5.564e-07
-1.46593e-08
-5.69688e-07
3.62745e-09
5.5537e-07
-1.61118e-08
-5.68648e-07
5.08804e-09
5.54011e-07
-1.76003e-08
-5.6728e-07
6.57002e-09
5.52279e-07
-1.91089e-08
-5.65539e-07
8.05642e-09
5.50126e-07
-2.06221e-08
-5.63376e-07
9.52782e-09
5.47495e-07
-2.2119e-08
-5.60737e-07
1.09618e-08
5.44325e-07
-2.35786e-08
-5.57559e-07
1.23328e-08
5.40542e-07
-2.4974e-08
-5.53767e-07
1.36151e-08
5.36065e-07
-2.62806e-08
-5.49283e-07
1.47979e-08
5.30824e-07
-2.74868e-08
-5.44034e-07
1.58829e-08
5.24772e-07
-2.85949e-08
-5.37975e-07
1.68599e-08
5.17855e-07
-2.95941e-08
-5.31051e-07
1.77032e-08
5.10016e-07
-3.04593e-08
-5.23205e-07
1.83797e-08
5.01188e-07
-3.11568e-08
-5.14371e-07
1.88545e-08
4.91306e-07
-3.16524e-08
-5.04483e-07
1.90905e-08
4.80303e-07
-3.19081e-08
-4.93474e-07
1.9048e-08
4.68119e-07
-3.18852e-08
-4.81285e-07
1.86842e-08
4.54697e-07
-3.154e-08
-4.67858e-07
1.79538e-08
4.39996e-07
-3.0828e-08
-4.53152e-07
1.68093e-08
4.23977e-07
-2.97008e-08
-4.37129e-07
1.52016e-08
4.06629e-07
-2.81104e-08
-4.19777e-07
1.30819e-08
3.87953e-07
-2.60069e-08
-4.01098e-07
1.04028e-08
3.6799e-07
-2.33438e-08
-3.81131e-07
7.12311e-09
3.46816e-07
-2.00793e-08
-3.59954e-07
3.21215e-09
3.24557e-07
-1.61832e-08
-3.37693e-07
-1.34426e-09
3.01357e-07
-1.16409e-08
-3.1449e-07
-6.53448e-09
2.77375e-07
-6.46449e-09
-2.90507e-07
-1.23058e-08
2.52779e-07
-7.06282e-10
-2.65909e-07
-1.85535e-08
2.2776e-07
5.52872e-09
-2.40888e-07
-2.51092e-08
2.02515e-07
1.20723e-08
-2.15643e-07
-3.17284e-08
1.77257e-07
1.86798e-08
-1.90384e-07
-3.80673e-08
1.5218e-07
2.50076e-08
-1.65307e-07
-4.36371e-08
1.27448e-07
3.05666e-08
-1.40574e-07
-4.77374e-08
1.03107e-07
3.46568e-08
-1.16233e-07
-4.95729e-08
7.903e-08
3.64825e-08
-9.21574e-08
-4.89684e-08
5.49507e-08
3.58689e-08
-6.80787e-08
-4.63188e-08
3.04791e-08
3.32106e-08
-4.36079e-08
-4.18378e-08
5.88053e-09
2.87215e-08
-1.90099e-08
-3.54347e-08
-1.53299e-08
2.23106e-08
2.20006e-09
-2.71445e-08
-2.88586e-08
1.40132e-08
1.57285e-08
-1.92451e-08
-6.04335e-08
6.1096e-09
4.73012e-08
-1.94993e-08
-2.22232e-07
6.36542e-09
2.09095e-07
-2.26489e-08
-4.46011e-07
9.51579e-09
4.32872e-07
-1.90193e-08
-5.78866e-07
5.88228e-09
5.65724e-07
-1.19084e-08
-6.43628e-07
-1.23644e-09
6.30484e-07
-4.7232e-09
-6.77378e-07
-8.42982e-09
6.64233e-07
9.55268e-10
-6.98101e-07
-1.4115e-08
6.84956e-07
4.95078e-09
-7.1277e-07
-1.81154e-08
6.99624e-07
7.79234e-09
-7.2375e-07
-2.09608e-08
7.10603e-07
9.89472e-09
-7.32467e-07
-2.30661e-08
7.19319e-07
1.14823e-08
-7.39774e-07
-2.4656e-08
7.26625e-07
1.2662e-08
-7.4599e-07
-2.58376e-08
7.3284e-07
1.35128e-08
-7.51203e-07
-2.66898e-08
7.38052e-07
1.41198e-08
-7.55455e-07
-2.72979e-08
7.42304e-07
1.45559e-08
-7.58766e-07
-2.77348e-08
7.45614e-07
1.48739e-08
-7.61101e-07
-2.80533e-08
7.47949e-07
1.50919e-08
-7.62458e-07
-2.82716e-08
7.49306e-07
1.519e-08
-7.63269e-07
-2.837e-08
7.50117e-07
)
;

boundaryField
{
    inlet
    {
        type            cyclic;
    }
    outlet
    {
        type            cyclic;
    }
    fixedWalls-bottom
    {
        type            zeroGradient;
    }
    fixedWalls-top
    {
        type            symmetry;
    }
    frontAndBack
    {
        type            empty;
    }
}


// ************************************************************************* //
