/*--------------------------------*- C++ -*----------------------------------*\
  =========                 |
  \\      /  F ield         | OpenFOAM: The Open Source CFD Toolbox
   \\    /   O peration     | Website:  https://openfoam.org
    \\  /    A nd           | Version:  10
     \\/     M anipulation  |
\*---------------------------------------------------------------------------*/
FoamFile
{
    format      ascii;
    class       volVectorField;
    location    "2500";
    object      U;
}
// * * * * * * * * * * * * * * * * * * * * * * * * * * * * * * * * * * * * * //

dimensions      [0 1 -1 0 0 0 0];

internalField   nonuniform List<vector> 
400
(
(0.0070289 5.70134e-11 0)
(0.00702891 -1.76771e-11 0)
(0.00702892 2.64212e-12 0)
(0.0070289 1.80944e-11 0)
(0.0211208 1.04167e-10 0)
(0.0211208 -2.12478e-10 0)
(0.0211209 6.75943e-11 0)
(0.0211208 2.12025e-10 0)
(0.0353445 -4.55057e-11 0)
(0.0353445 -5.82267e-10 0)
(0.0353446 1.95026e-10 0)
(0.0353445 5.82068e-10 0)
(0.0496998 -2.4297e-10 0)
(0.0496998 -1.12413e-09 0)
(0.0496999 3.95964e-10 0)
(0.0496997 1.1238e-09 0)
(0.0641864 -5.18769e-10 0)
(0.0641864 -1.82146e-09 0)
(0.0641865 6.69989e-10 0)
(0.0641864 1.821e-09 0)
(0.078804 -8.6795e-10 0)
(0.0788041 -2.65995e-09 0)
(0.0788042 1.01898e-09 0)
(0.078804 2.65939e-09 0)
(0.0935524 -1.29473e-09 0)
(0.0935524 -3.6257e-09 0)
(0.0935526 1.44568e-09 0)
(0.0935524 3.62503e-09 0)
(0.108431 -1.80204e-09 0)
(0.108431 -4.70401e-09 0)
(0.108431 1.95273e-09 0)
(0.108431 4.70325e-09 0)
(0.123439 -2.39247e-09 0)
(0.123439 -5.87833e-09 0)
(0.12344 2.54296e-09 0)
(0.123439 5.87749e-09 0)
(0.138577 -3.06899e-09 0)
(0.138577 -7.13109e-09 0)
(0.138577 3.21913e-09 0)
(0.138577 7.13019e-09 0)
(0.153843 -3.83437e-09 0)
(0.153843 -8.44307e-09 0)
(0.153844 3.98422e-09 0)
(0.153843 8.44213e-09 0)
(0.169237 -4.69184e-09 0)
(0.169237 -9.79426e-09 0)
(0.169238 4.84124e-09 0)
(0.169237 9.7933e-09 0)
(0.184759 -5.64443e-09 0)
(0.184759 -1.11632e-08 0)
(0.184759 5.79341e-09 0)
(0.184758 1.11622e-08 0)
(0.200406 -6.69566e-09 0)
(0.200406 -1.25274e-08 0)
(0.200406 6.84404e-09 0)
(0.200406 1.25265e-08 0)
(0.216179 -7.84887e-09 0)
(0.216179 -1.38633e-08 0)
(0.216179 7.9967e-09 0)
(0.216178 1.38624e-08 0)
(0.232075 -9.10795e-09 0)
(0.232075 -1.5147e-08 0)
(0.232075 9.25505e-09 0)
(0.232075 1.51461e-08 0)
(0.248095 -1.04767e-08 0)
(0.248095 -1.63536e-08 0)
(0.248095 1.06231e-08 0)
(0.248095 1.63528e-08 0)
(0.264236 -1.19595e-08 0)
(0.264236 -1.74591e-08 0)
(0.264236 1.21049e-08 0)
(0.264236 1.74584e-08 0)
(0.280497 -1.35607e-08 0)
(0.280497 -1.84401e-08 0)
(0.280497 1.37053e-08 0)
(0.280497 1.84396e-08 0)
(0.296877 -1.52859e-08 0)
(0.296877 -1.92774e-08 0)
(0.296877 1.54295e-08 0)
(0.296876 1.9277e-08 0)
(0.313373 -1.71412e-08 0)
(0.313372 -1.99581e-08 0)
(0.313373 1.72838e-08 0)
(0.313372 1.99579e-08 0)
(0.329982 -1.91349e-08 0)
(0.329982 -2.04824e-08 0)
(0.329983 1.92763e-08 0)
(0.329982 2.04823e-08 0)
(0.346704 -2.1278e-08 0)
(0.346704 -2.08704e-08 0)
(0.346704 2.14183e-08 0)
(0.346703 2.08706e-08 0)
(0.363533 -2.35889e-08 0)
(0.363533 -2.118e-08 0)
(0.363533 2.37279e-08 0)
(0.363532 2.11803e-08 0)
(0.380465 -2.61042e-08 0)
(0.380465 -2.15691e-08 0)
(0.380465 2.6242e-08 0)
(0.380465 2.15697e-08 0)
(0.397495 -2.89063e-08 0)
(0.397495 -2.24361e-08 0)
(0.397495 2.90426e-08 0)
(0.397495 2.24369e-08 0)
(0.414614 -3.21239e-08 0)
(0.414615 -2.4452e-08 0)
(0.414615 3.22589e-08 0)
(0.414614 2.44531e-08 0)
(0.431813 -3.56249e-08 0)
(0.431814 -2.7033e-08 0)
(0.431814 3.57584e-08 0)
(0.431813 2.70344e-08 0)
(0.449095 -3.94656e-08 0)
(0.449096 -3.04563e-08 0)
(0.449096 3.95976e-08 0)
(0.449095 3.04581e-08 0)
(0.466466 -4.34439e-08 0)
(0.466466 -3.37105e-08 0)
(0.466467 4.35743e-08 0)
(0.466466 3.37127e-08 0)
(0.483923 -4.75736e-08 0)
(0.483923 -3.6769e-08 0)
(0.483923 4.77024e-08 0)
(0.483923 3.67715e-08 0)
(0.501463 -5.18814e-08 0)
(0.501463 -3.96533e-08 0)
(0.501463 5.20085e-08 0)
(0.501463 3.96562e-08 0)
(0.519083 -5.63832e-08 0)
(0.519083 -4.2328e-08 0)
(0.519083 5.65086e-08 0)
(0.519082 4.23312e-08 0)
(0.536779 -6.10892e-08 0)
(0.536779 -4.47293e-08 0)
(0.536779 6.12129e-08 0)
(0.536779 4.4733e-08 0)
(0.554549 -6.60067e-08 0)
(0.554549 -4.67842e-08 0)
(0.554549 6.61286e-08 0)
(0.554548 4.67883e-08 0)
(0.572388 -7.11412e-08 0)
(0.572388 -4.84246e-08 0)
(0.572388 7.12612e-08 0)
(0.572387 4.84292e-08 0)
(0.590294 -7.6494e-08 0)
(0.590294 -4.95857e-08 0)
(0.590294 7.66122e-08 0)
(0.590293 4.95907e-08 0)
(0.608261 -8.20677e-08 0)
(0.608261 -5.02165e-08 0)
(0.608261 8.21839e-08 0)
(0.608261 5.02221e-08 0)
(0.626287 -8.78641e-08 0)
(0.626287 -5.02785e-08 0)
(0.626287 8.79783e-08 0)
(0.626286 5.02845e-08 0)
(0.644366 -9.38865e-08 0)
(0.644366 -4.97413e-08 0)
(0.644366 9.39987e-08 0)
(0.644366 4.97479e-08 0)
(0.662495 -1.00138e-07 0)
(0.662495 -4.85811e-08 0)
(0.662495 1.00248e-07 0)
(0.662494 4.85882e-08 0)
(0.680668 -1.06622e-07 0)
(0.680668 -4.6779e-08 0)
(0.680667 1.0673e-07 0)
(0.680667 4.67867e-08 0)
(0.69888 -1.13338e-07 0)
(0.69888 -4.43209e-08 0)
(0.698879 1.13444e-07 0)
(0.698879 4.4329e-08 0)
(0.717126 -1.20285e-07 0)
(0.717125 -4.11963e-08 0)
(0.717125 1.20389e-07 0)
(0.717125 4.12051e-08 0)
(0.7354 -1.27459e-07 0)
(0.7354 -3.73993e-08 0)
(0.7354 1.2756e-07 0)
(0.735399 3.74086e-08 0)
(0.753698 -1.34852e-07 0)
(0.753697 -3.29274e-08 0)
(0.753697 1.34951e-07 0)
(0.753697 3.29372e-08 0)
(0.772012 -1.42454e-07 0)
(0.772012 -2.77834e-08 0)
(0.772011 1.42551e-07 0)
(0.772011 2.77938e-08 0)
(0.790337 -1.50251e-07 0)
(0.790337 -2.19758e-08 0)
(0.790336 1.50347e-07 0)
(0.790336 2.19868e-08 0)
(0.808667 -1.58227e-07 0)
(0.808667 -1.55205e-08 0)
(0.808666 1.5832e-07 0)
(0.808666 1.55322e-08 0)
(0.826994 -1.6636e-07 0)
(0.826994 -8.44326e-09 0)
(0.826993 1.66451e-07 0)
(0.826993 8.45548e-09 0)
(0.845313 -1.74629e-07 0)
(0.845312 -7.81777e-10 0)
(0.845312 1.74717e-07 0)
(0.845312 7.94599e-10 0)
(0.863615 -1.83003e-07 0)
(0.863614 7.41134e-09 0)
(0.863614 1.8309e-07 0)
(0.863614 -7.39794e-09 0)
(0.881893 -1.91446e-07 0)
(0.881893 1.60778e-08 0)
(0.881892 1.91529e-07 0)
(0.881892 -1.60638e-08 0)
(0.90014 -1.99905e-07 0)
(0.90014 2.51491e-08 0)
(0.900139 1.99987e-07 0)
(0.900139 -2.51345e-08 0)
(0.918348 -2.08325e-07 0)
(0.918348 3.45531e-08 0)
(0.918347 2.08404e-07 0)
(0.918347 -3.4538e-08 0)
(0.936508 -2.16646e-07 0)
(0.936508 4.42086e-08 0)
(0.936507 2.16722e-07 0)
(0.936507 -4.41929e-08 0)
(0.954612 -2.24804e-07 0)
(0.954612 5.40201e-08 0)
(0.954611 2.24878e-07 0)
(0.954611 -5.40039e-08 0)
(0.972651 -2.32738e-07 0)
(0.972651 6.38766e-08 0)
(0.97265 2.3281e-07 0)
(0.97265 -6.38599e-08 0)
(0.990616 -2.40389e-07 0)
(0.990616 7.36489e-08 0)
(0.990615 2.40459e-07 0)
(0.990616 -7.36316e-08 0)
(1.0085 -2.47702e-07 0)
(1.0085 8.31916e-08 0)
(1.0085 2.4777e-07 0)
(1.0085 -8.31738e-08 0)
(1.02629 -2.54634e-07 0)
(1.02629 9.23415e-08 0)
(1.02629 2.54699e-07 0)
(1.02629 -9.23233e-08 0)
(1.04397 -2.61154e-07 0)
(1.04397 1.00921e-07 0)
(1.04397 2.61217e-07 0)
(1.04397 -1.00902e-07 0)
(1.06154 -2.67255e-07 0)
(1.06154 1.08738e-07 0)
(1.06154 2.67315e-07 0)
(1.06154 -1.08719e-07 0)
(1.07899 -2.72954e-07 0)
(1.07899 1.15593e-07 0)
(1.07899 2.73012e-07 0)
(1.07899 -1.15574e-07 0)
(1.0963 -2.78308e-07 0)
(1.0963 1.21286e-07 0)
(1.0963 2.78364e-07 0)
(1.0963 -1.21266e-07 0)
(1.11346 -2.83417e-07 0)
(1.11346 1.25632e-07 0)
(1.11346 2.8347e-07 0)
(1.11346 -1.25612e-07 0)
(1.13046 -2.8843e-07 0)
(1.13046 1.28477e-07 0)
(1.13046 2.88481e-07 0)
(1.13046 -1.28456e-07 0)
(1.14729 -2.9356e-07 0)
(1.14729 1.29715e-07 0)
(1.14729 2.93609e-07 0)
(1.14729 -1.29694e-07 0)
(1.16394 -2.99079e-07 0)
(1.16394 1.29307e-07 0)
(1.16394 2.99126e-07 0)
(1.16394 -1.29286e-07 0)
(1.18039 -3.05323e-07 0)
(1.18039 1.27298e-07 0)
(1.18039 3.05367e-07 0)
(1.18039 -1.27276e-07 0)
(1.19663 -3.12676e-07 0)
(1.19663 1.23839e-07 0)
(1.19663 3.12718e-07 0)
(1.19663 -1.23817e-07 0)
(1.21265 -3.21562e-07 0)
(1.21265 1.19222e-07 0)
(1.21265 3.21603e-07 0)
(1.21265 -1.192e-07 0)
(1.22843 -3.32411e-07 0)
(1.22843 1.13911e-07 0)
(1.22843 3.32449e-07 0)
(1.22842 -1.13889e-07 0)
(1.24395 -3.45614e-07 0)
(1.24395 1.08585e-07 0)
(1.24395 3.4565e-07 0)
(1.24395 -1.08564e-07 0)
(1.2592 -3.6145e-07 0)
(1.2592 1.04169e-07 0)
(1.2592 3.61484e-07 0)
(1.2592 -1.04148e-07 0)
(1.27417 -3.79952e-07 0)
(1.27417 1.01848e-07 0)
(1.27417 3.79984e-07 0)
(1.27417 -1.01827e-07 0)
(1.28884 -4.00746e-07 0)
(1.28884 1.03037e-07 0)
(1.28884 4.00776e-07 0)
(1.28884 -1.03016e-07 0)
(1.30319 -4.23287e-07 0)
(1.3032 1.09404e-07 0)
(1.30319 4.23315e-07 0)
(1.30319 -1.09383e-07 0)
(1.31721 -4.46658e-07 0)
(1.31721 1.2268e-07 0)
(1.31721 4.46684e-07 0)
(1.31721 -1.2266e-07 0)
(1.33088 -4.69781e-07 0)
(1.33088 1.44876e-07 0)
(1.33088 4.69806e-07 0)
(1.33088 -1.44856e-07 0)
(1.34417 -4.91029e-07 0)
(1.34417 1.79687e-07 0)
(1.34417 4.91052e-07 0)
(1.34417 -1.79668e-07 0)
(1.35708 -5.07877e-07 0)
(1.35707 2.34646e-07 0)
(1.35707 5.07898e-07 0)
(1.35707 -2.34627e-07 0)
(1.36957 -5.17046e-07 0)
(1.36957 3.13607e-07 0)
(1.36956 5.17065e-07 0)
(1.36957 -3.1359e-07 0)
(1.38164 -5.18672e-07 0)
(1.38164 3.47689e-07 0)
(1.38164 5.18693e-07 0)
(1.38164 -3.47672e-07 0)
(1.39333 -5.06397e-07 0)
(1.39333 3.60003e-07 0)
(1.39333 5.06413e-07 0)
(1.39333 -3.59986e-07 0)
(1.40459 -4.82672e-07 0)
(1.40459 3.01796e-07 0)
(1.4046 4.82686e-07 0)
(1.40459 -3.01781e-07 0)
(1.41537 -4.46742e-07 0)
(1.41537 2.23034e-07 0)
(1.41538 4.46755e-07 0)
(1.41537 -2.23019e-07 0)
(1.42562 -4.01521e-07 0)
(1.42562 1.49951e-07 0)
(1.42562 4.01533e-07 0)
(1.42562 -1.49938e-07 0)
(1.43529 -3.51329e-07 0)
(1.43529 9.01309e-08 0)
(1.4353 3.5134e-07 0)
(1.4353 -9.01185e-08 0)
(1.44436 -3.00031e-07 0)
(1.44436 4.49197e-08 0)
(1.44436 3.0004e-07 0)
(1.44436 -4.49085e-08 0)
(1.45278 -2.50699e-07 0)
(1.45278 1.28278e-08 0)
(1.45278 2.50707e-07 0)
(1.45279 -1.28178e-08 0)
(1.46053 -2.05258e-07 0)
(1.46053 -8.2258e-09 0)
(1.46053 2.05265e-07 0)
(1.46053 8.23457e-09 0)
(1.46756 -1.64749e-07 0)
(1.46756 -2.05354e-08 0)
(1.46756 1.64755e-07 0)
(1.46756 2.05429e-08 0)
(1.47384 -1.29554e-07 0)
(1.47384 -2.63309e-08 0)
(1.47384 1.29558e-07 0)
(1.47384 2.63372e-08 0)
(1.47934 -9.95833e-08 0)
(1.47934 -2.75222e-08 0)
(1.47934 9.95865e-08 0)
(1.47934 2.75272e-08 0)
(1.48402 -7.44211e-08 0)
(1.48401 -2.56018e-08 0)
(1.48401 7.44234e-08 0)
(1.48402 2.56056e-08 0)
(1.48784 -5.34145e-08 0)
(1.48784 -2.16716e-08 0)
(1.48784 5.3416e-08 0)
(1.48784 2.16742e-08 0)
(1.49076 -3.57534e-08 0)
(1.49076 -1.64599e-08 0)
(1.49076 3.57541e-08 0)
(1.49076 1.64613e-08 0)
(1.49275 -2.05387e-08 0)
(1.49275 -1.01429e-08 0)
(1.49275 2.05393e-08 0)
(1.49275 1.01429e-08 0)
(1.49376 -6.69947e-09 0)
(1.49376 -3.56458e-09 0)
(1.49376 6.69912e-09 0)
(1.49376 3.56491e-09 0)
)
;

boundaryField
{
    inlet
    {
        type            cyclic;
    }
    outlet
    {
        type            cyclic;
    }
    fixedWalls-bottom
    {
        type            noSlip;
    }
    fixedWalls-top
    {
        type            symmetry;
    }
    frontAndBack
    {
        type            empty;
    }
}


// ************************************************************************* //
