/*--------------------------------*- C++ -*----------------------------------*\
  =========                 |
  \\      /  F ield         | OpenFOAM: The Open Source CFD Toolbox
   \\    /   O peration     | Website:  https://openfoam.org
    \\  /    A nd           | Version:  10
     \\/     M anipulation  |
\*---------------------------------------------------------------------------*/
FoamFile
{
    format      ascii;
    class       volScalarField;
    location    "350";
    object      k;
}
// * * * * * * * * * * * * * * * * * * * * * * * * * * * * * * * * * * * * * //

dimensions      [0 2 -2 0 0 0 0];

internalField   nonuniform List<scalar> 
200
(
3.99107e-06
3.99046e-06
3.99071e-06
3.99125e-06
0.000120276
0.000120257
0.000120265
0.000120281
0.000833635
0.000833513
0.000833567
0.000833676
0.00250939
0.0025091
0.00250927
0.00250957
0.00439866
0.00439835
0.00439866
0.0043991
0.00584507
0.00584482
0.00584517
0.0058457
0.00685845
0.00685825
0.00685866
0.0068592
0.00754869
0.00754853
0.00754894
0.00754947
0.00801269
0.00801256
0.00801294
0.00801339
0.00832065
0.00832056
0.00832088
0.00832121
0.00851956
0.00851954
0.00851979
0.00851996
0.0086405
0.00864053
0.00864074
0.00864074
0.00870408
0.00870414
0.00870435
0.00870417
0.00872423
0.00872431
0.00872451
0.00872418
0.0087105
0.00871059
0.00871078
0.00871032
0.00866958
0.00866966
0.00866983
0.00866926
0.0086062
0.00860628
0.00860642
0.00860577
0.0085238
0.00852388
0.00852398
0.00852328
0.0084249
0.00842498
0.00842504
0.00842433
0.00831137
0.00831148
0.00831148
0.0083108
0.00818466
0.00818476
0.00818473
0.00818411
0.0080459
0.00804599
0.00804593
0.00804537
0.00789605
0.00789613
0.00789605
0.00789556
0.00773601
0.00773615
0.00773602
0.00773558
0.00756688
0.00756705
0.00756689
0.00756651
0.00738994
0.00739011
0.00738996
0.00738962
0.00720672
0.00720683
0.00720673
0.00720644
0.00701869
0.00701871
0.00701867
0.00701845
0.00682654
0.00682652
0.00682652
0.00682633
0.00663016
0.00663013
0.00663015
0.00662996
0.00642962
0.0064296
0.00642963
0.00642945
0.00622532
0.00622531
0.00622533
0.00622518
0.00601772
0.0060177
0.00601772
0.00601761
0.00580733
0.0058073
0.00580731
0.00580726
0.00559476
0.00559473
0.00559472
0.00559472
0.00538071
0.00538069
0.00538068
0.00538071
0.00516605
0.00516602
0.00516601
0.00516607
0.00495177
0.00495173
0.00495172
0.00495182
0.00473904
0.00473899
0.00473899
0.00473914
0.0045293
0.00452926
0.00452923
0.00452944
0.00432414
0.00432418
0.00432408
0.00432439
0.00412558
0.00412566
0.00412549
0.00412593
0.0039359
0.00393599
0.0039358
0.00393631
0.00375773
0.00375779
0.00375763
0.00375814
0.00359412
0.00359401
0.00359399
0.00359441
0.00344823
0.00344819
0.00344812
0.00344849
0.00332377
0.00332376
0.00332367
0.00332403
0.00322462
0.00322463
0.00322452
0.00322489
0.00315477
0.00315481
0.00315468
0.00315507
0.00311812
0.00311819
0.00311806
0.00311845
)
;

boundaryField
{
    inlet
    {
        type            cyclic;
    }
    outlet
    {
        type            cyclic;
    }
    fixedWalls-bottom
    {
        type            kqRWallFunction;
        value           nonuniform List<scalar> 4(3.99107e-06 3.99046e-06 3.99071e-06 3.99125e-06);
    }
    fixedWalls-top
    {
        type            symmetry;
    }
    frontAndBack
    {
        type            empty;
    }
}


// ************************************************************************* //
