/*--------------------------------*- C++ -*----------------------------------*\
  =========                 |
  \\      /  F ield         | OpenFOAM: The Open Source CFD Toolbox
   \\    /   O peration     | Website:  https://openfoam.org
    \\  /    A nd           | Version:  10
     \\/     M anipulation  |
\*---------------------------------------------------------------------------*/
FoamFile
{
    format      ascii;
    class       volScalarField;
    location    "350";
    object      nut;
}
// * * * * * * * * * * * * * * * * * * * * * * * * * * * * * * * * * * * * * //

dimensions      [0 2 -1 0 0 0 0];

internalField   nonuniform List<scalar> 
200
(
3.77252e-09
3.77194e-09
3.77218e-09
3.77268e-09
6.58323e-07
6.58221e-07
6.58261e-07
6.58349e-07
1.2459e-05
1.24569e-05
1.24576e-05
1.24592e-05
6.72308e-05
6.72205e-05
6.72263e-05
6.7234e-05
0.000173621
0.000173608
0.000173628
0.000173646
0.000302662
0.000302645
0.000302663
0.000302697
0.00045039
0.000450371
0.000450395
0.000450441
0.000614523
0.000614503
0.000614531
0.000614588
0.000791198
0.000791178
0.000791209
0.000791269
0.000977649
0.000977635
0.000977664
0.000977714
0.00117152
0.00117152
0.00117155
0.00117157
0.00137102
0.00137103
0.00137106
0.00137105
0.00157476
0.00157478
0.00157483
0.00157478
0.00178166
0.00178169
0.00178174
0.00178166
0.0019908
0.00199082
0.00199089
0.00199076
0.00220132
0.00220134
0.00220141
0.00220124
0.00241239
0.00241241
0.00241248
0.00241226
0.00262314
0.00262317
0.00262323
0.00262297
0.00283272
0.00283276
0.0028328
0.00283252
0.00304033
0.00304039
0.00304042
0.00304012
0.0032454
0.00324548
0.00324548
0.00324519
0.00344783
0.0034479
0.00344786
0.0034476
0.00364825
0.0036483
0.00364823
0.00364801
0.00384845
0.0038485
0.00384839
0.00384822
0.0040514
0.00405142
0.00405132
0.00405124
0.00426046
0.00426046
0.00426043
0.00426047
0.00447671
0.00447673
0.00447683
0.00447693
0.00469283
0.00469285
0.004693
0.00469286
0.00488201
0.00488156
0.00488123
0.00488029
0.00503593
0.00503583
0.00503541
0.00503462
0.0051797
0.00517964
0.00517907
0.00517889
0.00531324
0.00531311
0.00531269
0.0053128
0.0054359
0.00543555
0.00543541
0.00543572
0.00554695
0.0055467
0.00554655
0.00554728
0.00564623
0.00564602
0.00564594
0.00564693
0.00573316
0.00573308
0.005733
0.00573457
0.00580754
0.00580752
0.00580739
0.00581003
0.00586889
0.00586988
0.00586919
0.00587323
0.00591869
0.00591901
0.0059199
0.00592399
0.005957
0.0059577
0.00595665
0.00596358
0.0059811
0.00598569
0.00598249
0.00599156
0.00599601
0.00600109
0.00599809
0.00600898
0.00600166
0.00600746
0.00600401
0.00601713
0.00599951
0.00600627
0.00600207
0.00601758
0.00599163
0.00599938
0.00599434
0.00601225
0.00598019
0.00598946
0.00598304
0.00600351
0.00596793
0.00597873
0.00597078
0.00599389
0.00595767
0.00596999
0.00596037
0.005986
0.00595193
0.0059657
0.00595468
0.00598221
0.00595174
0.00596755
0.00595687
0.00598404
)
;

boundaryField
{
    inlet
    {
        type            cyclic;
    }
    outlet
    {
        type            cyclic;
    }
    fixedWalls-bottom
    {
        type            nutkWallFunction;
        Cmu             0.09;
        kappa           0.41;
        E               9.8;
        value           uniform 0;
    }
    fixedWalls-top
    {
        type            symmetry;
    }
    frontAndBack
    {
        type            empty;
    }
}


// ************************************************************************* //
