/*--------------------------------*- C++ -*----------------------------------*\
  =========                 |
  \\      /  F ield         | OpenFOAM: The Open Source CFD Toolbox
   \\    /   O peration     | Website:  https://openfoam.org
    \\  /    A nd           | Version:  10
     \\/     M anipulation  |
\*---------------------------------------------------------------------------*/
FoamFile
{
    format      ascii;
    class       volScalarField;
    location    "350";
    object      omega;
}
// * * * * * * * * * * * * * * * * * * * * * * * * * * * * * * * * * * * * * //

dimensions      [0 0 -1 0 0 0 0];

internalField   nonuniform List<scalar> 
200
(
1057.93
1057.93
1057.93
1057.93
182.7
182.701
182.701
182.701
66.9105
66.912
66.9121
66.9122
37.325
37.3263
37.3258
37.3259
25.3348
25.335
25.3338
25.3338
18.7938
18.7928
18.7914
18.7915
14.6557
14.6544
14.6526
14.6528
11.821
11.8199
11.818
11.8181
9.77951
9.77879
9.77693
9.77711
8.25385
8.25346
8.25204
8.25232
7.07963
7.07918
7.07836
7.07884
6.15328
6.15238
6.15222
6.15277
5.40643
5.40596
5.40593
5.40672
4.79383
4.7937
4.79365
4.79475
4.28348
4.28363
4.28354
4.28506
3.85289
3.85318
3.85314
3.85509
3.48529
3.48629
3.48599
3.48833
3.16917
3.17032
3.17005
3.17248
2.89496
2.89614
2.89586
2.89834
2.65554
2.6565
2.65633
2.6587
2.44543
2.44562
2.446
2.44787
2.25921
2.25938
2.2603
2.26134
2.09369
2.09442
2.09469
2.09562
1.94583
1.9466
1.94676
1.94762
1.81326
1.81381
1.81407
1.81478
1.69385
1.69389
1.69452
1.69503
1.58578
1.58581
1.58624
1.58667
1.48765
1.48785
1.48798
1.4883
1.39831
1.39843
1.39852
1.39875
1.31657
1.31659
1.3167
1.31687
1.24131
1.24132
1.24146
1.24147
1.17166
1.17169
1.17178
1.17173
1.10703
1.1071
1.10713
1.10705
1.04694
1.04698
1.04701
1.04687
0.990884
0.990916
0.990929
0.990754
0.938525
0.938533
0.938545
0.938293
0.889542
0.889539
0.889558
0.889164
0.843732
0.843583
0.84368
0.843118
0.800692
0.800639
0.800518
0.799992
0.760332
0.760237
0.760365
0.759518
0.722967
0.722419
0.722789
0.721747
0.688055
0.687486
0.687802
0.686627
0.655802
0.655184
0.655529
0.654183
0.62634
0.625644
0.626056
0.624527
0.599856
0.599063
0.599565
0.597848
0.576609
0.57571
0.576317
0.574413
0.556938
0.55593
0.556655
0.554569
0.541255
0.540141
0.540993
0.538739
0.530043
0.528825
0.529782
0.527409
0.523901
0.522523
0.523439
0.521128
)
;

boundaryField
{
    inlet
    {
        type            cyclic;
    }
    outlet
    {
        type            cyclic;
    }
    fixedWalls-bottom
    {
        beta1           0.075;
        blended         0;
        type            omegaWallFunction;
        value           nonuniform List<scalar> 4(1057.93 1057.93 1057.93 1057.93);
    }
    fixedWalls-top
    {
        type            symmetry;
    }
    frontAndBack
    {
        type            empty;
    }
}


// ************************************************************************* //
