/*--------------------------------*- C++ -*----------------------------------*\
  =========                 |
  \\      /  F ield         | OpenFOAM: The Open Source CFD Toolbox
   \\    /   O peration     | Website:  https://openfoam.org
    \\  /    A nd           | Version:  10
     \\/     M anipulation  |
\*---------------------------------------------------------------------------*/
FoamFile
{
    format      ascii;
    class       volScalarField;
    location    "350";
    object      p;
}
// * * * * * * * * * * * * * * * * * * * * * * * * * * * * * * * * * * * * * //

dimensions      [0 2 -2 0 0 0 0];

internalField   nonuniform List<scalar> 
200
(
-3.09605e-11
-8.86941e-07
-7.30529e-07
1.53514e-07
3.61526e-10
-8.86432e-07
-7.31039e-07
1.53011e-07
7.05261e-10
-8.86045e-07
-7.31408e-07
1.52637e-07
-3.09402e-10
-8.85763e-07
-7.30406e-07
1.52371e-07
-4.30724e-09
-8.8447e-07
-7.26416e-07
1.511e-07
-1.0976e-08
-8.82427e-07
-7.19764e-07
1.49078e-07
-1.91002e-08
-8.80477e-07
-7.11659e-07
1.47153e-07
-2.82664e-08
-8.78212e-07
-7.02519e-07
1.44913e-07
-3.77331e-08
-8.75599e-07
-6.93079e-07
1.42329e-07
-4.65283e-08
-8.72679e-07
-6.84314e-07
1.39437e-07
-5.37879e-08
-8.69134e-07
-6.77085e-07
1.35924e-07
-5.92756e-08
-8.64559e-07
-6.71631e-07
1.3138e-07
-6.3275e-08
-8.58707e-07
-6.67665e-07
1.25563e-07
-6.62816e-08
-8.51643e-07
-6.64696e-07
1.18533e-07
-6.84699e-08
-8.43533e-07
-6.62545e-07
1.10459e-07
-6.96835e-08
-8.34659e-07
-6.61374e-07
1.01621e-07
-6.97517e-08
-8.25252e-07
-6.61347e-07
9.22505e-08
-6.87051e-08
-8.15365e-07
-6.62441e-07
8.24009e-08
-6.6761e-08
-8.04749e-07
-6.64431e-07
7.18221e-08
-6.41201e-08
-7.93228e-07
-6.67123e-07
6.03387e-08
-6.10935e-08
-7.80915e-07
-6.702e-07
4.8064e-08
-5.79868e-08
-7.6834e-07
-6.73364e-07
3.55281e-08
-5.52869e-08
-7.55931e-07
-6.76121e-07
2.3158e-08
-5.34388e-08
-7.43715e-07
-6.78031e-07
1.09815e-08
-5.34858e-08
-7.31222e-07
-6.78046e-07
-1.46869e-09
-5.69402e-08
-7.17445e-07
-6.74653e-07
-1.52048e-08
-6.43135e-08
-7.00959e-07
-6.67343e-07
-3.16442e-08
-7.07471e-08
-6.82393e-07
-6.60974e-07
-5.01677e-08
-6.49635e-08
-6.67757e-07
-6.66829e-07
-6.47568e-08
-4.67644e-08
-6.58244e-07
-6.85098e-07
-7.42304e-08
-3.02904e-08
-6.49633e-07
-7.01642e-07
-8.27954e-08
-2.27663e-08
-6.39975e-07
-7.09231e-07
-9.24123e-08
-2.35159e-08
-6.28008e-07
-7.08542e-07
-1.04335e-07
-3.03839e-08
-6.14122e-07
-7.01734e-07
-1.18182e-07
-4.13309e-08
-5.98281e-07
-6.90846e-07
-1.33985e-07
-5.71207e-08
-5.80739e-07
-6.75118e-07
-1.51494e-07
-8.17165e-08
-5.61936e-07
-6.50586e-07
-1.70265e-07
-1.17687e-07
-5.39439e-07
-6.14677e-07
-1.92739e-07
-1.67434e-07
-5.11048e-07
-5.64994e-07
-2.21103e-07
-2.27045e-07
-4.86523e-07
-5.05437e-07
-2.45609e-07
-2.87482e-07
-4.6151e-07
-4.45063e-07
-2.70596e-07
-3.53904e-07
-4.26166e-07
-3.78691e-07
-3.05934e-07
-4.32197e-07
-3.8771e-07
-3.00453e-07
-3.44376e-07
-5.17869e-07
-3.5087e-07
-2.14818e-07
-3.8121e-07
-6.05939e-07
-3.17035e-07
-1.26787e-07
-4.15029e-07
-6.91438e-07
-2.87352e-07
-4.13159e-08
-4.44702e-07
-7.69143e-07
-2.63436e-07
3.63619e-08
-4.68606e-07
-8.33569e-07
-2.46504e-07
1.0077e-07
-4.85531e-07
-8.79855e-07
-2.35868e-07
1.47052e-07
-4.96169e-07
-9.06838e-07
-2.28484e-07
1.74043e-07
-5.03566e-07
)
;

boundaryField
{
    inlet
    {
        type            cyclic;
    }
    outlet
    {
        type            cyclic;
    }
    fixedWalls-bottom
    {
        type            zeroGradient;
    }
    fixedWalls-top
    {
        type            symmetry;
    }
    frontAndBack
    {
        type            empty;
    }
}


// ************************************************************************* //
