/*--------------------------------*- C++ -*----------------------------------*\
  =========                 |
  \\      /  F ield         | OpenFOAM: The Open Source CFD Toolbox
   \\    /   O peration     | Website:  https://openfoam.org
    \\  /    A nd           | Version:  10
     \\/     M anipulation  |
\*---------------------------------------------------------------------------*/
FoamFile
{
    format      ascii;
    class       surfaceScalarField;
    location    "350";
    object      phi;
}
// * * * * * * * * * * * * * * * * * * * * * * * * * * * * * * * * * * * * * //

dimensions      [0 3 -1 0 0 0 0];

internalField   nonuniform List<scalar> 
346
(
0.00110705
6.35066e-09
0.00110704
1.25352e-08
0.00110704
-4.1785e-09
-1.26476e-08
0.0034252
2.54866e-08
0.00342517
4.27113e-08
0.00342519
-2.38285e-08
-4.3088e-08
0.00586856
6.38184e-08
0.00586852
8.35113e-08
0.00586856
-6.236e-08
-8.3975e-08
0.00824084
1.1422e-07
0.0082408
1.17354e-07
0.00824085
-1.13012e-07
-1.17984e-07
0.010323
1.52584e-07
0.010323
1.45258e-07
0.010323
-1.51457e-07
-1.45891e-07
0.0121129
1.76413e-07
0.0121129
1.63262e-07
0.0121129
-1.75394e-07
-1.6399e-07
0.0136942
1.8991e-07
0.0136942
1.68304e-07
0.0136942
-1.88937e-07
-1.69004e-07
0.0151301
1.95381e-07
0.0151301
1.62031e-07
0.0151301
-1.94452e-07
-1.62787e-07
0.0164656
1.9461e-07
0.0164656
1.47312e-07
0.0164656
-1.93721e-07
-1.48033e-07
0.0177332
1.90828e-07
0.0177333
1.25599e-07
0.0177332
-1.89955e-07
-1.26352e-07
0.018956
1.87608e-07
0.018956
1.00349e-07
0.018956
-1.86778e-07
-1.01065e-07
0.0201508
1.86578e-07
0.0201508
7.39448e-08
0.0201508
-1.85752e-07
-7.46732e-08
0.02133
1.88139e-07
0.02133
4.93191e-08
0.02133
-1.87353e-07
-5.00193e-08
0.0225031
1.90456e-07
0.0225031
2.74124e-08
0.0225031
-1.89672e-07
-2.81102e-08
0.0236773
1.92796e-07
0.0236773
8.95844e-09
0.0236773
-1.92048e-07
-9.63413e-09
0.0248585
1.94673e-07
0.0248585
-6.59171e-09
0.0248585
-1.93934e-07
5.93227e-09
0.0260515
1.9678e-07
0.0260515
-1.96408e-08
0.0260515
-1.96064e-07
1.8991e-08
0.0272603
1.99598e-07
0.0272603
-3.04861e-08
0.0272603
-1.989e-07
2.98638e-08
0.0284882
2.0355e-07
0.0284882
-3.8982e-08
0.0284882
-2.02861e-07
3.83565e-08
0.0297385
2.09041e-07
0.0297385
-4.42844e-08
0.0297385
-2.08379e-07
4.36955e-08
0.0310136
2.16007e-07
0.0310136
-4.65694e-08
0.0310136
-2.15343e-07
4.59674e-08
0.032316
2.24679e-07
0.032316
-4.63965e-08
0.032316
-2.24047e-07
4.58354e-08
0.0336478
2.34989e-07
0.0336478
-4.62567e-08
0.0336478
-2.34347e-07
4.56756e-08
0.0350107
2.46384e-07
0.0350107
-4.79758e-08
0.0350107
-2.45772e-07
4.74317e-08
0.036406
2.5606e-07
0.036406
-5.41137e-08
0.036406
-2.55446e-07
5.35586e-08
0.0378348
2.57152e-07
0.0378348
-6.46158e-08
0.0378348
-2.56561e-07
6.40894e-08
0.0392979
2.40458e-07
0.0392979
-7.48522e-08
0.0392979
-2.39884e-07
7.43333e-08
0.040796
2.03632e-07
0.040796
-7.56942e-08
0.040796
-2.03074e-07
7.51958e-08
0.0423315
1.7099e-07
0.0423315
-7.25761e-08
0.0423314
-1.70461e-07
7.20977e-08
0.0439073
1.62245e-07
0.0439073
-6.81019e-08
0.0439072
-1.61731e-07
6.76425e-08
0.0455258
1.70169e-07
0.0455258
-5.66478e-08
0.0455258
-1.69686e-07
5.62108e-08
0.0471883
1.85429e-07
0.0471883
-3.98033e-08
0.0471883
-1.84968e-07
3.93916e-08
0.0488962
2.02044e-07
0.0488961
-1.7874e-08
0.0488962
-2.016e-07
1.74713e-08
0.0506504
2.17275e-07
0.0506503
8.05708e-09
0.0506503
-2.16863e-07
-8.42645e-09
0.0524519
2.33707e-07
0.0524519
3.79849e-08
0.0524519
-2.33304e-07
-3.83516e-08
0.0543018
2.54811e-07
0.0543017
7.13994e-08
0.0543017
-2.5445e-07
-7.17243e-08
0.0562005
2.78615e-07
0.0562005
1.0421e-07
0.0562005
-2.78258e-07
-1.04536e-07
0.0581488
3.02498e-07
0.0581488
1.34425e-07
0.0581488
-3.02195e-07
-1.34699e-07
0.0601469
3.18723e-07
0.0601468
1.70205e-07
0.0601469
-3.18409e-07
-1.70494e-07
0.0621947
3.23149e-07
0.0621946
1.95811e-07
0.0621947
-3.22907e-07
-1.96029e-07
0.0642918
3.30415e-07
0.0642918
2.06333e-07
0.0642918
-3.30137e-07
-2.06593e-07
0.0664377
3.39473e-07
0.0664377
2.19705e-07
0.0664377
-3.39281e-07
-2.1988e-07
0.068631
3.35866e-07
0.0686309
2.32817e-07
0.0686309
-3.35615e-07
-2.33055e-07
0.0708699
3.15683e-07
0.0708699
2.39315e-07
0.0708698
-3.15508e-07
-2.39479e-07
0.073152
2.80245e-07
0.073152
2.35124e-07
0.0731519
-2.80053e-07
-2.35309e-07
0.0754741
2.32622e-07
0.0754741
2.17292e-07
0.0754741
-2.3249e-07
-2.17419e-07
0.0778323
1.76634e-07
0.0778323
1.83939e-07
0.0778323
-1.7654e-07
-1.8403e-07
0.0802218
1.17092e-07
0.0802218
1.34305e-07
0.0802218
-1.1706e-07
-1.34336e-07
0.0826369
5.86518e-08
0.0826369
6.89505e-08
0.0826369
-5.86652e-08
-6.89371e-08
0.085071
0.0850711
0.085071
)
;

boundaryField
{
    inlet
    {
        type            cyclic;
        value           nonuniform List<scalar> 
50
(
-0.085071
-0.0826368
-0.0802217
-0.0778322
-0.075474
-0.0731519
-0.0708698
-0.068631
-0.0664377
-0.0642919
-0.0621947
-0.0601469
-0.0581489
-0.0562006
-0.0543018
-0.0524519
-0.0506504
-0.0488962
-0.0471884
-0.0455258
-0.0439072
-0.0423314
-0.040796
-0.0392978
-0.0378348
-0.036406
-0.0350107
-0.0336478
-0.032316
-0.0310136
-0.0297385
-0.0284882
-0.0272603
-0.0260515
-0.0248585
-0.0236773
-0.0225031
-0.02133
-0.0201508
-0.018956
-0.0177332
-0.0164656
-0.0151301
-0.0136942
-0.0121129
-0.010323
-0.00824089
-0.0058686
-0.00342522
-0.00110705
)
;
    }
    outlet
    {
        type            cyclic;
        value           nonuniform List<scalar> 
50
(
0.085071
0.0826368
0.0802217
0.0778322
0.075474
0.0731519
0.0708698
0.068631
0.0664377
0.0642919
0.0621947
0.0601469
0.0581489
0.0562006
0.0543018
0.0524519
0.0506504
0.0488962
0.0471884
0.0455258
0.0439072
0.0423314
0.040796
0.0392978
0.0378348
0.036406
0.0350107
0.0336478
0.032316
0.0310136
0.0297385
0.0284882
0.0272603
0.0260515
0.0248585
0.0236773
0.0225031
0.02133
0.0201508
0.018956
0.0177332
0.0164656
0.0151301
0.0136942
0.0121129
0.010323
0.00824089
0.0058686
0.00342522
0.00110705
)
;
    }
    fixedWalls-bottom
    {
        type            calculated;
        value           uniform 0;
    }
    fixedWalls-top
    {
        type            symmetry;
        value           uniform 0;
    }
    frontAndBack
    {
        type            empty;
        value           nonuniform List<scalar> 0();
    }
}


// ************************************************************************* //
