/*--------------------------------*- C++ -*----------------------------------*\
  =========                 |
  \\      /  F ield         | OpenFOAM: The Open Source CFD Toolbox
   \\    /   O peration     | Website:  https://openfoam.org
    \\  /    A nd           | Version:  10
     \\/     M anipulation  |
\*---------------------------------------------------------------------------*/
FoamFile
{
    format      ascii;
    class       volSymmTensorField;
    location    "350";
    object      R;
}
// * * * * * * * * * * * * * * * * * * * * * * * * * * * * * * * * * * * * * //

dimensions      [0 2 -2 0 0 0 0];

internalField   nonuniform List<symmTensor> 
200
(
(2.66072e-06 -4.89516e-08 -0 2.66072e-06 -0 2.66072e-06)
(2.66031e-06 -4.89434e-08 -0 2.66031e-06 -0 2.66031e-06)
(2.66047e-06 -4.89463e-08 -0 2.66047e-06 -0 2.66047e-06)
(2.66083e-06 -4.89536e-08 -0 2.66083e-06 -0 2.66083e-06)
(8.01839e-05 -8.36715e-06 -0 8.01839e-05 -0 8.01839e-05)
(8.01716e-05 -8.36575e-06 -0 8.01716e-05 -0 8.01716e-05)
(8.01766e-05 -8.36627e-06 -0 8.01766e-05 -0 8.01766e-05)
(8.01874e-05 -8.36751e-06 -0 8.01874e-05 -0 8.01874e-05)
(0.000555757 -0.000147155 -0 0.000555757 -0 0.000555757)
(0.000555675 -0.000147129 -0 0.000555675 -0 0.000555675)
(0.000555711 -0.000147139 -0 0.000555711 -0 0.000555711)
(0.000555784 -0.000147159 -0 0.000555784 -0 0.000555784)
(0.00167293 -0.000669091 -0 0.00167292 -0 0.00167293)
(0.00167273 -0.000668994 -0 0.00167273 -0 0.00167273)
(0.00167285 -0.000669052 -0 0.00167285 -0 0.00167285)
(0.00167304 -0.000669127 -0 0.00167305 -0 0.00167304)
(0.00293244 -0.00134712 -0 0.00293244 -0 0.00293244)
(0.00293223 -0.00134704 -0 0.00293223 -0 0.00293223)
(0.00293244 -0.00134719 -0 0.00293244 -0 0.00293244)
(0.00293273 -0.00134731 -0 0.00293274 -0 0.00293274)
(0.00389671 -0.00181198 -0 0.00389671 -0 0.00389671)
(0.00389655 -0.0018119 -0 0.00389654 -0 0.00389654)
(0.00389678 -0.00181201 -0 0.00389678 -0 0.00389678)
(0.00389713 -0.00181217 -0 0.00389713 -0 0.00389713)
(0.0045723 -0.00212625 -0 0.0045723 -0 0.0045723)
(0.00457217 -0.00212619 -0 0.00457217 -0 0.00457217)
(0.00457244 -0.00212632 -0 0.00457244 -0 0.00457244)
(0.0045728 -0.00212649 -0 0.0045728 -0 0.0045728)
(0.00503246 -0.00234054 -0 0.00503246 -0 0.00503246)
(0.00503235 -0.00234049 -0 0.00503236 -0 0.00503236)
(0.00503263 -0.00234062 -0 0.00503263 -0 0.00503263)
(0.00503298 -0.00234078 -0 0.00503298 -0 0.00503298)
(0.00534179 -0.00248403 -0 0.00534179 -0 0.00534179)
(0.00534171 -0.00248399 -0 0.00534171 -0 0.00534171)
(0.00534196 -0.00248411 -0 0.00534196 -0 0.00534196)
(0.00534227 -0.00248425 -0 0.00534226 -0 0.00534226)
(0.0055471 -0.00257942 -0 0.0055471 -0 0.0055471)
(0.00554704 -0.0025794 -0 0.00554705 -0 0.00554704)
(0.00554725 -0.0025795 -0 0.00554725 -0 0.00554725)
(0.00554748 -0.0025796 -0 0.00554747 -0 0.00554747)
(0.00567971 -0.00264107 -0 0.00567971 -0 0.00567971)
(0.00567969 -0.00264106 -0 0.0056797 -0 0.00567969)
(0.00567986 -0.00264114 -0 0.00567986 -0 0.00567986)
(0.00567998 -0.0026412 -0 0.00567997 -0 0.00567998)
(0.00576033 -0.00267856 -0 0.00576033 -0 0.00576033)
(0.00576035 -0.00267857 -0 0.00576036 -0 0.00576035)
(0.00576049 -0.00267863 -0 0.00576049 -0 0.00576049)
(0.0057605 -0.00267863 -0 0.00576049 -0 0.00576049)
(0.00580272 -0.00269827 -0 0.00580272 -0 0.00580272)
(0.00580275 -0.00269828 -0 0.00580276 -0 0.00580276)
(0.0058029 -0.00269835 -0 0.0058029 -0 0.0058029)
(0.00580279 -0.00269829 -0 0.00580277 -0 0.00580278)
(0.00581615 -0.00270451 -0 0.00581615 -0 0.00581615)
(0.0058162 -0.00270454 -0 0.00581621 -0 0.0058162)
(0.00581634 -0.0027046 -0 0.00581634 -0 0.00581634)
(0.00581613 -0.0027045 -0 0.00581612 -0 0.00581612)
(0.005807 -0.00270026 -0 0.005807 -0 0.005807)
(0.00580705 -0.00270028 -0 0.00580706 -0 0.00580706)
(0.00580719 -0.00270034 -0 0.00580719 -0 0.00580719)
(0.00580689 -0.0027002 -0 0.00580688 -0 0.00580688)
(0.00577972 -0.00268757 -0 0.00577972 -0 0.00577972)
(0.00577977 -0.0026876 -0 0.00577978 -0 0.00577977)
(0.00577989 -0.00268765 -0 0.00577989 -0 0.00577989)
(0.00577951 -0.00268747 -0 0.0057795 -0 0.00577951)
(0.00573747 -0.00266792 -0 0.00573747 -0 0.00573747)
(0.00573751 -0.00266795 -0 0.00573752 -0 0.00573752)
(0.00573761 -0.00266799 -0 0.00573761 -0 0.00573761)
(0.00573718 -0.00266779 -0 0.00573717 -0 0.00573718)
(0.00568253 -0.00264238 -0 0.00568253 -0 0.00568253)
(0.00568258 -0.0026424 -0 0.00568259 -0 0.00568258)
(0.00568265 -0.00264243 -0 0.00568265 -0 0.00568265)
(0.00568219 -0.00264222 -0 0.00568218 -0 0.00568219)
(0.0056166 -0.00261172 -0 0.0056166 -0 0.0056166)
(0.00561665 -0.00261175 -0 0.00561666 -0 0.00561666)
(0.00561669 -0.00261176 -0 0.00561669 -0 0.00561669)
(0.00561622 -0.00261154 -0 0.00561622 -0 0.00561622)
(0.00554092 -0.00257653 -0 0.00554091 -0 0.00554091)
(0.00554098 -0.00257656 -0 0.00554099 -0 0.00554098)
(0.00554099 -0.00257656 -0 0.00554099 -0 0.00554099)
(0.00554054 -0.00257635 -0 0.00554053 -0 0.00554053)
(0.00545644 -0.00253724 -0 0.00545644 -0 0.00545644)
(0.00545651 -0.00253728 -0 0.00545651 -0 0.00545651)
(0.00545649 -0.00253727 -0 0.00545649 -0 0.00545649)
(0.00545607 -0.00253707 -0 0.00545607 -0 0.00545607)
(0.00536394 -0.00249423 -0 0.00536393 -0 0.00536394)
(0.005364 -0.00249426 -0 0.005364 -0 0.005364)
(0.00536395 -0.00249424 -0 0.00536396 -0 0.00536395)
(0.00536358 -0.00249407 -0 0.00536358 -0 0.00536358)
(0.00526404 -0.00244778 -0 0.00526403 -0 0.00526403)
(0.00526409 -0.0024478 -0 0.00526409 -0 0.00526409)
(0.00526403 -0.00244777 -0 0.00526404 -0 0.00526403)
(0.0052637 -0.00244762 -0 0.0052637 -0 0.0052637)
(0.00515734 -0.00239816 -0 0.00515733 -0 0.00515734)
(0.00515743 -0.00239821 -0 0.00515743 -0 0.00515743)
(0.00515734 -0.00239817 -0 0.00515735 -0 0.00515734)
(0.00515706 -0.00239803 -0 0.00515705 -0 0.00515706)
(0.00504459 -0.00234573 -0 0.00504458 -0 0.00504458)
(0.00504469 -0.00234578 -0 0.0050447 -0 0.0050447)
(0.00504459 -0.00234574 -0 0.0050446 -0 0.0050446)
(0.00504434 -0.00234562 -0 0.00504434 -0 0.00504434)
(0.00492663 -0.00229088 -0 0.00492663 -0 0.00492663)
(0.00492673 -0.00229093 -0 0.00492674 -0 0.00492674)
(0.00492664 -0.00229089 -0 0.00492664 -0 0.00492664)
(0.00492642 -0.00229078 -0 0.00492641 -0 0.00492641)
(0.00480447 -0.00223408 -0 0.00480449 -0 0.00480448)
(0.00480455 -0.00223412 -0 0.00480456 -0 0.00480455)
(0.00480449 -0.00223409 -0 0.00480448 -0 0.00480449)
(0.0048043 -0.002234 -0 0.00480429 -0 0.0048043)
(0.00467911 -0.00217579 -0 0.00467914 -0 0.00467913)
(0.00467914 -0.0021758 -0 0.00467914 -0 0.00467914)
(0.00467913 -0.00217579 -0 0.0046791 -0 0.00467912)
(0.00467897 -0.00217572 -0 0.00467897 -0 0.00467897)
(0.00455101 -0.00211136 -0 0.00455104 -0 0.00455103)
(0.00455102 -0.00211115 -0 0.00455101 -0 0.00455101)
(0.00455103 -0.002111 -0 0.004551 -0 0.00455101)
(0.00455088 -0.00211078 -0 0.00455089 -0 0.00455089)
(0.0044201 -0.00204054 -0 0.00442011 -0 0.00442011)
(0.00442009 -0.00204043 -0 0.00442009 -0 0.00442009)
(0.0044201 -0.00204029 -0 0.00442009 -0 0.0044201)
(0.00441997 -0.00204018 -0 0.00441998 -0 0.00441998)
(0.00428642 -0.00196986 -0 0.00428641 -0 0.00428641)
(0.0042864 -0.00196973 -0 0.00428639 -0 0.0042864)
(0.00428641 -0.00196955 -0 0.00428642 -0 0.00428642)
(0.00428629 -0.00196959 -0 0.0042863 -0 0.0042863)
(0.00415022 -0.00189649 -0 0.00415021 -0 0.00415022)
(0.00415021 -0.00189639 -0 0.0041502 -0 0.0041502)
(0.00415021 -0.00189624 -0 0.00415023 -0 0.00415022)
(0.00415011 -0.00189632 -0 0.00415013 -0 0.00415012)
(0.00401182 -0.00182039 -0 0.00401181 -0 0.00401181)
(0.00401181 -0.00182026 -0 0.00401179 -0 0.0040118)
(0.0040118 -0.00182018 -0 0.00401182 -0 0.00401181)
(0.00401173 -0.00182032 -0 0.00401175 -0 0.00401174)
(0.00387156 -0.00174149 -0 0.00387154 -0 0.00387155)
(0.00387155 -0.00174141 -0 0.00387152 -0 0.00387154)
(0.00387153 -0.00174133 -0 0.00387155 -0 0.00387154)
(0.00387149 -0.0017416 -0 0.00387152 -0 0.00387151)
(0.00372985 -0.00165984 -0 0.00372983 -0 0.00372984)
(0.00372983 -0.00165978 -0 0.00372981 -0 0.00372982)
(0.00372981 -0.00165972 -0 0.00372982 -0 0.00372982)
(0.0037298 -0.00166008 -0 0.00372983 -0 0.00372981)
(0.00358715 -0.00157534 -0 0.00358713 -0 0.00358714)
(0.00358714 -0.00157534 -0 0.00358711 -0 0.00358713)
(0.00358711 -0.00157529 -0 0.00358713 -0 0.00358712)
(0.00358712 -0.00157578 -0 0.00358715 -0 0.00358714)
(0.00344405 -0.001488 -0 0.00344402 -0 0.00344403)
(0.00344403 -0.00148801 -0 0.003444 -0 0.00344401)
(0.003444 -0.00148798 -0 0.00344402 -0 0.00344401)
(0.00344403 -0.00148867 -0 0.00344406 -0 0.00344405)
(0.00330119 -0.00139766 -0 0.00330117 -0 0.00330118)
(0.00330117 -0.00139791 -0 0.00330114 -0 0.00330116)
(0.00330113 -0.00139772 -0 0.00330115 -0 0.00330114)
(0.0033012 -0.00139868 -0 0.00330123 -0 0.00330121)
(0.00315937 -0.0013045 -0 0.00315936 -0 0.00315936)
(0.00315934 -0.00130468 -0 0.00315931 -0 0.00315933)
(0.00315932 -0.00130479 -0 0.00315933 -0 0.00315933)
(0.00315941 -0.0013057 -0 0.00315944 -0 0.00315943)
(0.00301954 -0.00120849 -0 0.00301953 -0 0.00301954)
(0.00301952 -0.00120871 -0 0.0030195 -0 0.00301951)
(0.00301948 -0.00120852 -0 0.00301949 -0 0.00301948)
(0.00301962 -0.00120987 -0 0.00301964 -0 0.00301963)
(0.00288276 -0.00110907 -0 0.00288276 -0 0.00288276)
(0.00288279 -0.00110984 -0 0.00288278 -0 0.00288279)
(0.00288272 -0.00110937 -0 0.00288272 -0 0.00288272)
(0.00288292 -0.00111095 -0 0.00288293 -0 0.00288292)
(0.00275039 -0.00100688 -0 0.00275039 -0 0.00275039)
(0.00275045 -0.00100764 -0 0.00275044 -0 0.00275044)
(0.00275033 -0.00100721 -0 0.00275033 -0 0.00275033)
(0.00275062 -0.00100893 -0 0.00275063 -0 0.00275062)
(0.00262393 -0.000901563 -0 0.00262394 -0 0.00262393)
(0.002624 -0.00090242 -0 0.00262399 -0 0.002624)
(0.00262387 -0.000901933 -0 0.00262387 -0 0.00262387)
(0.0026242 -0.000903782 -0 0.00262421 -0 0.00262421)
(0.00250515 -0.000793139 -0 0.00250516 -0 0.00250515)
(0.00250519 -0.000794032 -0 0.00250519 -0 0.00250519)
(0.0025051 -0.000793526 -0 0.00250508 -0 0.00250509)
(0.00250543 -0.000795435 -0 0.00250543 -0 0.00250543)
(0.00239606 -0.000681573 -0 0.00239609 -0 0.00239608)
(0.002396 -0.00068244 -0 0.00239601 -0 0.00239601)
(0.00239601 -0.000681944 -0 0.00239598 -0 0.002396)
(0.00239628 -0.000683831 -0 0.00239627 -0 0.00239628)
(0.0022988 -0.000566791 -0 0.00229884 -0 0.00229882)
(0.00229879 -0.000567639 -0 0.0022988 -0 0.00229879)
(0.00229877 -0.000567131 -0 0.00229873 -0 0.00229875)
(0.002299 -0.000568923 -0 0.00229899 -0 0.002299)
(0.00221582 -0.000448765 -0 0.00221587 -0 0.00221585)
(0.00221583 -0.000449536 -0 0.00221585 -0 0.00221584)
(0.0022158 -0.000449051 -0 0.00221576 -0 0.00221578)
(0.00221603 -0.000450653 -0 0.00221601 -0 0.00221602)
(0.00214972 -0.00032745 -0 0.00214977 -0 0.00214975)
(0.00214974 -0.000328082 -0 0.00214977 -0 0.00214975)
(0.0021497 -0.000327665 -0 0.00214966 -0 0.00214968)
(0.00214995 -0.000328964 -0 0.00214991 -0 0.00214993)
(0.00210316 -0.000202795 -0 0.0021032 -0 0.00210318)
(0.00210319 -0.00020322 -0 0.00210323 -0 0.00210321)
(0.00210314 -0.000202924 -0 0.0021031 -0 0.00210312)
(0.0021034 -0.000203796 -0 0.00210336 -0 0.00210338)
(0.00207873 -6.98267e-05 -0 0.00207877 -0 0.00207875)
(0.00207877 -6.99888e-05 -0 0.00207881 -0 0.00207879)
(0.00207872 -6.98906e-05 -0 0.00207868 -0 0.0020787)
(0.00207899 -7.01902e-05 -0 0.00207894 -0 0.00207896)
)
;

boundaryField
{
    inlet
    {
        type            cyclic;
    }
    outlet
    {
        type            cyclic;
    }
    fixedWalls-bottom
    {
        type            kqRWallFunction;
        value           nonuniform List<symmTensor> 4((2.66072e-06 -0 -0 2.66072e-06 -0 2.66072e-06) (2.66031e-06 -0 -0 2.66031e-06 -0 2.66031e-06) (2.66047e-06 -0 -0 2.66047e-06 -0 2.66047e-06) (2.66083e-06 -0 -0 2.66083e-06 -0 2.66083e-06));
    }
    fixedWalls-top
    {
        type            symmetry;
    }
    frontAndBack
    {
        type            empty;
    }
}


// ************************************************************************* //
