/*--------------------------------*- C++ -*----------------------------------*\
  =========                 |
  \\      /  F ield         | OpenFOAM: The Open Source CFD Toolbox
   \\    /   O peration     | Website:  https://openfoam.org
    \\  /    A nd           | Version:  10
     \\/     M anipulation  |
\*---------------------------------------------------------------------------*/
FoamFile
{
    format      ascii;
    class       volVectorField;
    location    "350";
    object      U;
}
// * * * * * * * * * * * * * * * * * * * * * * * * * * * * * * * * * * * * * //

dimensions      [0 1 -1 0 0 0 0];

internalField   nonuniform List<vector> 
200
(
(0.0600827 1.22237e-09 0)
(0.0600819 2.43395e-09 0)
(0.0600815 -2.69989e-10 0)
(0.0600824 -2.6281e-09 0)
(0.18071 1.40804e-08 0)
(0.180708 2.54883e-08 0)
(0.180707 -1.18669e-08 0)
(0.18071 -2.56167e-08 0)
(0.300982 4.52576e-08 0)
(0.300979 6.13851e-08 0)
(0.300978 -4.35375e-08 0)
(0.300983 -6.1815e-08 0)
(0.410859 9.07179e-08 0)
(0.410856 9.99592e-08 0)
(0.410856 -8.94444e-08 0)
(0.410861 -1.0053e-07 0)
(0.50031 1.32456e-07 0)
(0.500308 1.3732e-07 0)
(0.500308 -1.31333e-07 0)
(0.500312 -1.37971e-07 0)
(0.570682 1.66308e-07 0)
(0.570681 1.57056e-07 0)
(0.57068 -1.65265e-07 0)
(0.570683 -1.57753e-07 0)
(0.627186 1.84457e-07 0)
(0.627186 1.68807e-07 0)
(0.627186 -1.83471e-07 0)
(0.627187 -1.69525e-07 0)
(0.673617 1.93319e-07 0)
(0.673618 1.67771e-07 0)
(0.673618 -1.92368e-07 0)
(0.673618 -1.68501e-07 0)
(0.712628 1.95199e-07 0)
(0.712629 1.56435e-07 0)
(0.71263 -1.94287e-07 0)
(0.712629 -1.57172e-07 0)
(0.74608 1.92693e-07 0)
(0.746081 1.37318e-07 0)
(0.746082 -1.91808e-07 0)
(0.746081 -1.38054e-07 0)
(0.775279 1.89113e-07 0)
(0.77528 1.13192e-07 0)
(0.775281 -1.88258e-07 0)
(0.77528 -1.13924e-07 0)
(0.801154 1.8696e-07 0)
(0.801155 8.68697e-08 0)
(0.801157 -1.86129e-07 0)
(0.801155 -8.75912e-08 0)
(0.824381 1.87243e-07 0)
(0.824382 6.10646e-08 0)
(0.824383 -1.86434e-07 0)
(0.824382 -6.17777e-08 0)
(0.845458 1.89219e-07 0)
(0.845458 3.76682e-08 0)
(0.845459 -1.88432e-07 0)
(0.845458 -3.83667e-08 0)
(0.864759 1.91675e-07 0)
(0.86476 1.74563e-08 0)
(0.86476 -1.90908e-07 0)
(0.86476 -1.81425e-08 0)
(0.882574 1.93868e-07 0)
(0.882575 4.75471e-10 0)
(0.882575 -1.93123e-07 0)
(0.882575 -1.14276e-09 0)
(0.899129 1.95818e-07 0)
(0.899129 -1.38511e-08 0)
(0.89913 -1.9509e-07 0)
(0.899129 1.31967e-08 0)
(0.914602 1.98196e-07 0)
(0.914603 -2.58055e-08 0)
(0.914603 -1.97489e-07 0)
(0.914603 2.51696e-08 0)
(0.92914 2.01514e-07 0)
(0.92914 -3.54631e-08 0)
(0.92914 -2.00821e-07 0)
(0.92914 3.48392e-08 0)
(0.942859 2.06173e-07 0)
(0.94286 -4.22786e-08 0)
(0.94286 -2.05498e-07 0)
(0.94286 4.16715e-08 0)
(0.955859 2.12288e-07 0)
(0.955859 -4.58916e-08 0)
(0.955859 -2.11625e-07 0)
(0.955859 4.52961e-08 0)
(0.968216 2.20108e-07 0)
(0.968217 -4.67286e-08 0)
(0.968216 -2.1946e-07 0)
(0.968217 4.6147e-08 0)
(0.979996 2.29822e-07 0)
(0.979996 -4.62067e-08 0)
(0.979996 -2.29186e-07 0)
(0.979997 4.56351e-08 0)
(0.991245 2.41462e-07 0)
(0.991246 -4.66823e-08 0)
(0.991246 -2.40836e-07 0)
(0.991246 4.6119e-08 0)
(1.002 2.53152e-07 0)
(1.002 -5.06876e-08 0)
(1.002 -2.52541e-07 0)
(1.002 5.01369e-08 0)
(1.01228 2.59081e-07 0)
(1.01228 -5.92387e-08 0)
(1.01228 -2.5848e-07 0)
(1.01228 5.86972e-08 0)
(1.02209 2.49649e-07 0)
(1.02209 -6.90491e-08 0)
(1.02209 -2.49066e-07 0)
(1.02209 6.85253e-08 0)
(1.03146 2.20175e-07 0)
(1.03146 -7.37901e-08 0)
(1.03146 -2.19609e-07 0)
(1.03146 7.32805e-08 0)
(1.04042 1.89808e-07 0)
(1.04042 -7.87408e-08 0)
(1.04042 -1.89265e-07 0)
(1.04042 7.82524e-08 0)
(1.04905 1.64971e-07 0)
(1.04905 -7.17442e-08 0)
(1.04905 -1.64449e-07 0)
(1.04905 7.12752e-08 0)
(1.05738 1.63003e-07 0)
(1.05738 -6.43386e-08 0)
(1.05738 -1.62504e-07 0)
(1.05738 6.38909e-08 0)
(1.06542 1.76211e-07 0)
(1.06542 -4.92266e-08 0)
(1.06542 -1.75739e-07 0)
(1.06542 4.88021e-08 0)
(1.07318 1.93271e-07 0)
(1.07318 -2.97269e-08 0)
(1.07318 -1.9282e-07 0)
(1.07318 2.93196e-08 0)
(1.08067 2.09558e-07 0)
(1.08067 -5.69893e-09 0)
(1.08067 -2.09132e-07 0)
(1.08067 5.31245e-09 0)
(1.08789 2.25883e-07 0)
(1.08789 2.24625e-08 0)
(1.08789 -2.25478e-07 0)
(1.08789 -2.28309e-08 0)
(1.09484 2.44684e-07 0)
(1.09484 5.43942e-08 0)
(1.09484 -2.44304e-07 0)
(1.09484 -5.47406e-08 0)
(1.10152 2.66685e-07 0)
(1.10152 8.65346e-08 0)
(1.10152 -2.66326e-07 0)
(1.10152 -8.68613e-08 0)
(1.10791 2.92884e-07 0)
(1.10791 1.20228e-07 0)
(1.10791 -2.92555e-07 0)
(1.10791 -1.20528e-07 0)
(1.11401 3.09482e-07 0)
(1.11401 1.58353e-07 0)
(1.11401 -3.09171e-07 0)
(1.11401 -1.5863e-07 0)
(1.11981 3.20271e-07 0)
(1.11981 1.78774e-07 0)
(1.11981 -3.1999e-07 0)
(1.11981 -1.79028e-07 0)
(1.12527 3.30603e-07 0)
(1.12528 2.04188e-07 0)
(1.12527 -3.30341e-07 0)
(1.12528 -2.04421e-07 0)
(1.1304 3.35075e-07 0)
(1.1304 2.15436e-07 0)
(1.1304 -3.34837e-07 0)
(1.1304 -2.15651e-07 0)
(1.13514 3.38299e-07 0)
(1.13514 2.28195e-07 0)
(1.13514 -3.38076e-07 0)
(1.13514 -2.28397e-07 0)
(1.13947 3.2702e-07 0)
(1.13947 2.39063e-07 0)
(1.13947 -3.26805e-07 0)
(1.13947 -2.3926e-07 0)
(1.14335 2.99087e-07 0)
(1.14336 2.41273e-07 0)
(1.14336 -2.98905e-07 0)
(1.14335 -2.41442e-07 0)
(1.14674 2.56606e-07 0)
(1.14674 2.3018e-07 0)
(1.14674 -2.56444e-07 0)
(1.14674 -2.30336e-07 0)
(1.14959 2.03414e-07 0)
(1.14959 2.043e-07 0)
(1.14959 -2.03306e-07 0)
(1.14958 -2.04408e-07 0)
(1.15183 1.45032e-07 0)
(1.15183 1.6159e-07 0)
(1.15183 -1.44976e-07 0)
(1.15182 -1.61651e-07 0)
(1.1534 8.87746e-08 0)
(1.1534 1.0302e-07 0)
(1.15341 -8.87701e-08 0)
(1.1534 -1.03043e-07 0)
(1.15426 3.09863e-08 0)
(1.15426 3.54782e-08 0)
(1.15426 -3.09923e-08 0)
(1.15425 -3.54608e-08 0)
)
;

boundaryField
{
    inlet
    {
        type            cyclic;
    }
    outlet
    {
        type            cyclic;
    }
    fixedWalls-bottom
    {
        type            noSlip;
    }
    fixedWalls-top
    {
        type            symmetry;
    }
    frontAndBack
    {
        type            empty;
    }
}


// ************************************************************************* //
