/*--------------------------------*- C++ -*----------------------------------*\
  =========                 |
  \\      /  F ield         | OpenFOAM: The Open Source CFD Toolbox
   \\    /   O peration     | Website:  https://openfoam.org
    \\  /    A nd           | Version:  10
     \\/     M anipulation  |
\*---------------------------------------------------------------------------*/
FoamFile
{
    format      ascii;
    class       volScalarField;
    location    "10000";
    object      p;
}
// * * * * * * * * * * * * * * * * * * * * * * * * * * * * * * * * * * * * * //

dimensions      [0 2 -2 0 0 0 0];

internalField   nonuniform List<scalar> 
400
(
3.55676e-18
-6.43354e-17
-1.07069e-16
6.99116e-18
7.70911e-18
-6.42829e-17
-1.07012e-16
6.95126e-18
9.36062e-18
-6.4238e-17
-1.06992e-16
6.92519e-18
1.05375e-17
-6.41785e-17
-1.06974e-16
6.87049e-18
1.17841e-17
-6.40977e-17
-1.06995e-16
6.84213e-18
1.31004e-17
-6.4014e-17
-1.06945e-16
6.68578e-18
1.41982e-17
-6.39305e-17
-1.06953e-16
6.64955e-18
1.51579e-17
-6.38933e-17
-1.06839e-16
6.60017e-18
1.60787e-17
-6.37051e-17
-1.06785e-16
6.40651e-18
1.70307e-17
-6.34657e-17
-1.06801e-16
6.20268e-18
1.79472e-17
-6.31834e-17
-1.06755e-16
5.91609e-18
1.89465e-17
-6.31345e-17
-1.06779e-16
5.88438e-18
1.98079e-17
-6.33234e-17
-1.06779e-16
6.13559e-18
2.09297e-17
-6.31473e-17
-1.06919e-16
5.98636e-18
2.20938e-17
-6.26505e-17
-1.07135e-16
5.55822e-18
2.3207e-17
-6.21708e-17
-1.07339e-16
5.09857e-18
2.43623e-17
-6.18574e-17
-1.07727e-16
4.96379e-18
2.53706e-17
-6.15486e-17
-1.08005e-16
4.79454e-18
2.59903e-17
-6.13816e-17
-1.07829e-16
4.74738e-18
2.64741e-17
-6.11382e-17
-1.07594e-16
4.7122e-18
2.71464e-17
-6.10977e-17
-1.07497e-16
4.74923e-18
2.80075e-17
-6.03232e-17
-1.07495e-16
4.01469e-18
2.87746e-17
-5.98386e-17
-1.07494e-16
3.49777e-18
2.95461e-17
-5.96329e-17
-1.07159e-16
3.17597e-18
2.99623e-17
-5.92316e-17
-1.0675e-16
2.79637e-18
3.01268e-17
-5.91416e-17
-1.06005e-16
2.86505e-18
3.02976e-17
-5.89743e-17
-1.05113e-16
2.61438e-18
3.00587e-17
-5.91916e-17
-1.03951e-16
2.71221e-18
2.92469e-17
-5.93041e-17
-1.0241e-16
2.91612e-18
2.82976e-17
-5.96179e-17
-1.00634e-16
3.2873e-18
2.72885e-17
-5.97645e-17
-9.89431e-17
3.59463e-18
2.67921e-17
-5.94382e-17
-9.7678e-17
3.42059e-18
2.63104e-17
-5.90348e-17
-9.63241e-17
3.03293e-18
2.59312e-17
-5.87131e-17
-9.53136e-17
2.96634e-18
2.55639e-17
-5.77002e-17
-9.45516e-17
2.53569e-18
2.49166e-17
-5.70483e-17
-9.35681e-17
2.26614e-18
2.42847e-17
-5.61297e-17
-9.25515e-17
1.56894e-18
2.39781e-17
-5.52571e-17
-9.15915e-17
1.03085e-18
2.35377e-17
-5.45812e-17
-9.05132e-17
5.16096e-19
2.25485e-17
-5.34534e-17
-8.94561e-17
1.00899e-20
2.17239e-17
-5.24274e-17
-8.80007e-17
-7.59368e-19
2.05119e-17
-5.20975e-17
-8.61741e-17
-8.14785e-19
1.8908e-17
-5.12274e-17
-8.41339e-17
-1.2704e-18
1.76229e-17
-4.94735e-17
-8.30814e-17
-2.40181e-18
1.63616e-17
-4.89461e-17
-8.16002e-17
-2.28836e-18
1.54081e-17
-4.77906e-17
-8.01846e-17
-2.83951e-18
1.40787e-17
-4.73941e-17
-7.87606e-17
-2.45015e-18
1.3052e-17
-4.75708e-17
-7.71906e-17
-1.67056e-18
1.25587e-17
-4.76168e-17
-7.66471e-17
-1.14677e-18
1.26049e-17
-4.68065e-17
-7.6679e-17
-1.12651e-18
1.2285e-17
-4.57528e-17
-7.61946e-17
-1.59479e-18
1.24914e-17
-4.45186e-17
-7.59609e-17
-2.29189e-18
1.27081e-17
-4.30942e-17
-7.61576e-17
-2.96761e-18
1.34338e-17
-4.09199e-17
-7.66105e-17
-4.58268e-18
1.48787e-17
-3.88017e-17
-7.77402e-17
-6.1664e-18
1.58698e-17
-3.64563e-17
-7.78274e-17
-8.18542e-18
1.66349e-17
-3.41478e-17
-7.81616e-17
-1.01697e-17
1.81141e-17
-3.19019e-17
-7.86817e-17
-1.25748e-17
1.86936e-17
-2.96358e-17
-7.8605e-17
-1.44881e-17
2.02e-17
-2.56087e-17
-7.93445e-17
-1.8155e-17
2.23782e-17
-1.97259e-17
-8.00735e-17
-2.44142e-17
2.50126e-17
-1.5698e-17
-8.10533e-17
-2.95096e-17
2.6576e-17
-1.23482e-17
-8.21342e-17
-3.26066e-17
2.90247e-17
-1.09117e-17
-8.32514e-17
-3.46151e-17
3.2328e-17
-8.29098e-18
-8.58702e-17
-3.76595e-17
3.62777e-17
-4.16804e-18
-8.99869e-17
-4.13118e-17
4.06439e-17
-1.38765e-18
-9.37244e-17
-4.37104e-17
4.44246e-17
-1.34621e-19
-9.66539e-17
-4.55021e-17
4.74262e-17
1.99825e-18
-9.85373e-17
-4.83041e-17
5.02808e-17
4.30343e-18
-1.00717e-16
-5.03191e-17
5.22026e-17
7.15198e-18
-1.02357e-16
-5.27436e-17
5.40041e-17
1.10438e-17
-1.04212e-16
-5.61524e-17
5.56815e-17
1.50405e-17
-1.05883e-16
-5.93848e-17
5.78197e-17
1.69502e-17
-1.07575e-16
-6.09328e-17
6.00318e-17
1.93299e-17
-1.09735e-16
-6.32754e-17
6.27005e-17
2.28879e-17
-1.12317e-16
-6.56522e-17
6.58159e-17
2.56524e-17
-1.15476e-16
-6.73429e-17
6.86558e-17
2.8384e-17
-1.1799e-16
-6.98057e-17
7.15856e-17
3.24701e-17
-1.21101e-16
-7.37511e-17
7.49698e-17
3.63967e-17
-1.24534e-16
-7.73782e-17
7.91475e-17
3.98139e-17
-1.29053e-16
-8.00095e-17
8.13509e-17
4.38611e-17
-1.3168e-16
-8.27036e-17
8.50432e-17
4.79989e-17
-1.34688e-16
-8.65031e-17
8.68267e-17
5.22209e-17
-1.36811e-16
-9.00293e-17
8.80786e-17
5.52894e-17
-1.37814e-16
-9.26345e-17
8.98292e-17
5.76708e-17
-1.39458e-16
-9.43372e-17
8.91049e-17
5.99053e-17
-1.39474e-16
-9.51704e-17
8.79285e-17
6.16397e-17
-1.38416e-16
-9.58005e-17
8.62957e-17
6.37474e-17
-1.37248e-16
-9.68882e-17
8.48773e-17
6.50294e-17
-1.3671e-16
-9.68303e-17
8.30241e-17
6.38642e-17
-1.35393e-16
-9.50333e-17
7.9832e-17
6.15909e-17
-1.33152e-16
-9.15238e-17
7.56238e-17
5.92032e-17
-1.30002e-16
-8.78871e-17
7.13515e-17
5.66535e-17
-1.26113e-16
-8.47244e-17
6.76116e-17
5.33426e-17
-1.23223e-16
-8.05144e-17
6.41014e-17
5.15496e-17
-1.21744e-16
-7.64668e-17
6.28896e-17
4.99521e-17
-1.2183e-16
-7.37609e-17
6.36442e-17
4.91606e-17
-1.23798e-16
-7.1778e-17
6.45879e-17
4.82713e-17
-1.26225e-16
-6.96275e-17
6.82878e-17
4.77037e-17
-1.29374e-16
-6.96104e-17
)
;

boundaryField
{
    inlet
    {
        type            cyclic;
    }
    outlet
    {
        type            cyclic;
    }
    fixedWalls-bottom
    {
        type            zeroGradient;
    }
    fixedWalls-top
    {
        type            symmetry;
    }
    frontAndBack
    {
        type            empty;
    }
}


// ************************************************************************* //
