/*--------------------------------*- C++ -*----------------------------------*\
  =========                 |
  \\      /  F ield         | OpenFOAM: The Open Source CFD Toolbox
   \\    /   O peration     | Website:  https://openfoam.org
    \\  /    A nd           | Version:  10
     \\/     M anipulation  |
\*---------------------------------------------------------------------------*/
FoamFile
{
    format      ascii;
    class       volSymmTensorField;
    location    "10000";
    object      R;
}
// * * * * * * * * * * * * * * * * * * * * * * * * * * * * * * * * * * * * * //

dimensions      [0 2 -2 0 0 0 0];

internalField   nonuniform List<symmTensor> 
400
(
(1.4803e-16 -1.51339e-20 -0 1.4803e-16 -0 1.4803e-16)
(1.4803e-16 -1.51339e-20 -0 1.4803e-16 -0 1.4803e-16)
(1.4803e-16 -1.51339e-20 -0 1.4803e-16 -0 1.4803e-16)
(1.4803e-16 -1.51339e-20 -0 1.4803e-16 -0 1.4803e-16)
(1.4803e-16 -9.18571e-20 -0 1.4803e-16 -0 1.4803e-16)
(1.4803e-16 -9.18571e-20 -0 1.4803e-16 -0 1.4803e-16)
(1.4803e-16 -9.18571e-20 -0 1.4803e-16 -0 1.4803e-16)
(1.4803e-16 -9.18571e-20 -0 1.4803e-16 -0 1.4803e-16)
(1.4803e-16 -2.77233e-19 -0 1.4803e-16 -0 1.4803e-16)
(1.4803e-16 -2.77233e-19 -0 1.4803e-16 -0 1.4803e-16)
(1.4803e-16 -2.77233e-19 -0 1.4803e-16 -0 1.4803e-16)
(1.4803e-16 -2.77233e-19 -0 1.4803e-16 -0 1.4803e-16)
(1.4803e-16 -5.93281e-19 -0 1.4803e-16 -0 1.4803e-16)
(1.4803e-16 -5.93282e-19 -0 1.4803e-16 -0 1.4803e-16)
(1.4803e-16 -5.93282e-19 -0 1.4803e-16 -0 1.4803e-16)
(1.4803e-16 -5.93282e-19 -0 1.4803e-16 -0 1.4803e-16)
(1.4803e-16 -1.04799e-18 -0 1.4803e-16 -0 1.4803e-16)
(1.4803e-16 -1.048e-18 -0 1.4803e-16 -0 1.4803e-16)
(1.4803e-16 -1.048e-18 -0 1.4803e-16 -0 1.4803e-16)
(1.4803e-16 -1.048e-18 -0 1.4803e-16 -0 1.4803e-16)
(1.4803e-16 -1.64083e-18 -0 1.4803e-16 -0 1.4803e-16)
(1.4803e-16 -1.64086e-18 -0 1.4803e-16 -0 1.4803e-16)
(1.4803e-16 -1.64088e-18 -0 1.4803e-16 -0 1.4803e-16)
(1.4803e-16 -1.64087e-18 -0 1.4803e-16 -0 1.4803e-16)
(1.4803e-16 -2.36663e-18 -0 1.4803e-16 -0 1.4803e-16)
(1.4803e-16 -2.36672e-18 -0 1.4803e-16 -0 1.4803e-16)
(1.4803e-16 -2.36676e-18 -0 1.4803e-16 -0 1.4803e-16)
(1.4803e-16 -2.36674e-18 -0 1.4803e-16 -0 1.4803e-16)
(1.4803e-16 -3.22198e-18 -0 1.4803e-16 -0 1.4803e-16)
(1.4803e-16 -3.22218e-18 -0 1.4803e-16 -0 1.4803e-16)
(1.4803e-16 -3.22223e-18 -0 1.4803e-16 -0 1.4803e-16)
(1.4803e-16 -3.2222e-18 -0 1.4803e-16 -0 1.4803e-16)
(1.4803e-16 -4.20718e-18 -0 1.4803e-16 -0 1.4803e-16)
(1.4803e-16 -4.20753e-18 -0 1.4803e-16 -0 1.4803e-16)
(1.4803e-16 -4.20758e-18 -0 1.4803e-16 -0 1.4803e-16)
(1.4803e-16 -4.20754e-18 -0 1.4803e-16 -0 1.4803e-16)
(1.4803e-16 -5.32412e-18 -0 1.4803e-16 -0 1.4803e-16)
(1.4803e-16 -5.32462e-18 -0 1.4803e-16 -0 1.4803e-16)
(1.4803e-16 -5.32468e-18 -0 1.4803e-16 -0 1.4803e-16)
(1.4803e-16 -5.32463e-18 -0 1.4803e-16 -0 1.4803e-16)
(1.4803e-16 -6.57457e-18 -0 1.4803e-16 -0 1.4803e-16)
(1.4803e-16 -6.57524e-18 -0 1.4803e-16 -0 1.4803e-16)
(1.4803e-16 -6.57531e-18 -0 1.4803e-16 -0 1.4803e-16)
(1.4803e-16 -6.57526e-18 -0 1.4803e-16 -0 1.4803e-16)
(1.4803e-16 -7.95941e-18 -0 1.4803e-16 -0 1.4803e-16)
(1.4803e-16 -7.96025e-18 -0 1.4803e-16 -0 1.4803e-16)
(1.4803e-16 -7.96035e-18 -0 1.4803e-16 -0 1.4803e-16)
(1.4803e-16 -7.96029e-18 -0 1.4803e-16 -0 1.4803e-16)
(1.4803e-16 -9.47818e-18 -0 1.4803e-16 -0 1.4803e-16)
(1.4803e-16 -9.47922e-18 -0 1.4803e-16 -0 1.4803e-16)
(1.4803e-16 -9.47939e-18 -0 1.4803e-16 -0 1.4803e-16)
(1.4803e-16 -9.47931e-18 -0 1.4803e-16 -0 1.4803e-16)
(1.4803e-16 -1.11283e-17 -0 1.4803e-16 -0 1.4803e-16)
(1.4803e-16 -1.11297e-17 -0 1.4803e-16 -0 1.4803e-16)
(1.4803e-16 -1.11299e-17 -0 1.4803e-16 -0 1.4803e-16)
(1.4803e-16 -1.11298e-17 -0 1.4803e-16 -0 1.4803e-16)
(1.4803e-16 -1.29037e-17 -0 1.4803e-16 -0 1.4803e-16)
(1.4803e-16 -1.29055e-17 -0 1.4803e-16 -0 1.4803e-16)
(1.4803e-16 -1.2906e-17 -0 1.4803e-16 -0 1.4803e-16)
(1.4803e-16 -1.29058e-17 -0 1.4803e-16 -0 1.4803e-16)
(1.4803e-16 -1.4794e-17 -0 1.4803e-16 -0 1.4803e-16)
(1.4803e-16 -1.47965e-17 -0 1.4803e-16 -0 1.4803e-16)
(1.4803e-16 -1.47972e-17 -0 1.4803e-16 -0 1.4803e-16)
(1.4803e-16 -1.4797e-17 -0 1.4803e-16 -0 1.4803e-16)
(1.4803e-16 -1.67848e-17 -0 1.4803e-16 -0 1.4803e-16)
(1.4803e-16 -1.67881e-17 -0 1.4803e-16 -0 1.4803e-16)
(1.4803e-16 -1.67894e-17 -0 1.4803e-16 -0 1.4803e-16)
(1.4803e-16 -1.6789e-17 -0 1.4803e-16 -0 1.4803e-16)
(1.4803e-16 -1.88587e-17 -0 1.4803e-16 -0 1.4803e-16)
(1.4803e-16 -1.88633e-17 -0 1.4803e-16 -0 1.4803e-16)
(1.4803e-16 -1.88653e-17 -0 1.4803e-16 -0 1.4803e-16)
(1.4803e-16 -1.88648e-17 -0 1.4803e-16 -0 1.4803e-16)
(1.4803e-16 -2.09962e-17 -0 1.4803e-16 -0 1.4803e-16)
(1.4803e-16 -2.10026e-17 -0 1.4803e-16 -0 1.4803e-16)
(1.4803e-16 -2.10056e-17 -0 1.4803e-16 -0 1.4803e-16)
(1.4803e-16 -2.10049e-17 -0 1.4803e-16 -0 1.4803e-16)
(1.4803e-16 -2.31769e-17 -0 1.4803e-16 -0 1.4803e-16)
(1.4803e-16 -2.31854e-17 -0 1.4803e-16 -0 1.4803e-16)
(1.4803e-16 -2.31897e-17 -0 1.4803e-16 -0 1.4803e-16)
(1.4803e-16 -2.31889e-17 -0 1.4803e-16 -0 1.4803e-16)
(1.4803e-16 -2.53793e-17 -0 1.4803e-16 -0 1.4803e-16)
(1.4803e-16 -2.53905e-17 -0 1.4803e-16 -0 1.4803e-16)
(1.4803e-16 -2.53965e-17 -0 1.4803e-16 -0 1.4803e-16)
(1.4803e-16 -2.53956e-17 -0 1.4803e-16 -0 1.4803e-16)
(1.4803e-16 -2.75825e-17 -0 1.4803e-16 -0 1.4803e-16)
(1.4803e-16 -2.75967e-17 -0 1.4803e-16 -0 1.4803e-16)
(1.4803e-16 -2.76051e-17 -0 1.4803e-16 -0 1.4803e-16)
(1.4803e-16 -2.76041e-17 -0 1.4803e-16 -0 1.4803e-16)
(1.4803e-16 -2.97663e-17 -0 1.4803e-16 -0 1.4803e-16)
(1.4803e-16 -2.9784e-17 -0 1.4803e-16 -0 1.4803e-16)
(1.4803e-16 -2.97953e-17 -0 1.4803e-16 -0 1.4803e-16)
(1.4803e-16 -2.97945e-17 -0 1.4803e-16 -0 1.4803e-16)
(1.4803e-16 -3.19125e-17 -0 1.4803e-16 -0 1.4803e-16)
(1.4803e-16 -3.19338e-17 -0 1.4803e-16 -0 1.4803e-16)
(1.4803e-16 -3.19486e-17 -0 1.4803e-16 -0 1.4803e-16)
(1.4803e-16 -3.19484e-17 -0 1.4803e-16 -0 1.4803e-16)
(1.4803e-16 -3.40048e-17 -0 1.4803e-16 -0 1.4803e-16)
(1.4803e-16 -3.40298e-17 -0 1.4803e-16 -0 1.4803e-16)
(1.4803e-16 -3.40489e-17 -0 1.4803e-16 -0 1.4803e-16)
(1.4803e-16 -3.40498e-17 -0 1.4803e-16 -0 1.4803e-16)
(1.4803e-16 -3.60294e-17 -0 1.4803e-16 -0 1.4803e-16)
(1.4803e-16 -3.60579e-17 -0 1.4803e-16 -0 1.4803e-16)
(1.4803e-16 -3.6082e-17 -0 1.4803e-16 -0 1.4803e-16)
(1.4803e-16 -3.60844e-17 -0 1.4803e-16 -0 1.4803e-16)
(1.4803e-16 -3.79753e-17 -0 1.4803e-16 -0 1.4803e-16)
(1.4803e-16 -3.80069e-17 -0 1.4803e-16 -0 1.4803e-16)
(1.4803e-16 -3.80364e-17 -0 1.4803e-16 -0 1.4803e-16)
(1.4803e-16 -3.80412e-17 -0 1.4803e-16 -0 1.4803e-16)
(1.4803e-16 -3.98341e-17 -0 1.4803e-16 -0 1.4803e-16)
(1.4803e-16 -3.98681e-17 -0 1.4803e-16 -0 1.4803e-16)
(1.4803e-16 -3.99033e-17 -0 1.4803e-16 -0 1.4803e-16)
(1.4803e-16 -3.99116e-17 -0 1.4803e-16 -0 1.4803e-16)
(1.4803e-16 -4.16e-17 -0 1.4803e-16 -0 1.4803e-16)
(1.4803e-16 -4.16354e-17 -0 1.4803e-16 -0 1.4803e-16)
(1.4803e-16 -4.16762e-17 -0 1.4803e-16 -0 1.4803e-16)
(1.4803e-16 -4.16896e-17 -0 1.4803e-16 -0 1.4803e-16)
(1.4803e-16 -4.32693e-17 -0 1.4803e-16 -0 1.4803e-16)
(1.4803e-16 -4.33049e-17 -0 1.4803e-16 -0 1.4803e-16)
(1.4803e-16 -4.33511e-17 -0 1.4803e-16 -0 1.4803e-16)
(1.4803e-16 -4.33715e-17 -0 1.4803e-16 -0 1.4803e-16)
(1.4803e-16 -4.48403e-17 -0 1.4803e-16 -0 1.4803e-16)
(1.4803e-16 -4.48751e-17 -0 1.4803e-16 -0 1.4803e-16)
(1.4803e-16 -4.49261e-17 -0 1.4803e-16 -0 1.4803e-16)
(1.4803e-16 -4.49555e-17 -0 1.4803e-16 -0 1.4803e-16)
(1.4803e-16 -4.63133e-17 -0 1.4803e-16 -0 1.4803e-16)
(1.4803e-16 -4.63464e-17 -0 1.4803e-16 -0 1.4803e-16)
(1.4803e-16 -4.64012e-17 -0 1.4803e-16 -0 1.4803e-16)
(1.4803e-16 -4.64414e-17 -0 1.4803e-16 -0 1.4803e-16)
(1.4803e-16 -4.76897e-17 -0 1.4803e-16 -0 1.4803e-16)
(1.4803e-16 -4.77204e-17 -0 1.4803e-16 -0 1.4803e-16)
(1.4803e-16 -4.7778e-17 -0 1.4803e-16 -0 1.4803e-16)
(1.4803e-16 -4.78307e-17 -0 1.4803e-16 -0 1.4803e-16)
(1.4803e-16 -4.8972e-17 -0 1.4803e-16 -0 1.4803e-16)
(1.4803e-16 -4.90004e-17 -0 1.4803e-16 -0 1.4803e-16)
(1.4803e-16 -4.90592e-17 -0 1.4803e-16 -0 1.4803e-16)
(1.4803e-16 -4.91258e-17 -0 1.4803e-16 -0 1.4803e-16)
(1.4803e-16 -5.01637e-17 -0 1.4803e-16 -0 1.4803e-16)
(1.4803e-16 -5.019e-17 -0 1.4803e-16 -0 1.4803e-16)
(1.4803e-16 -5.02484e-17 -0 1.4803e-16 -0 1.4803e-16)
(1.4803e-16 -5.03301e-17 -0 1.4803e-16 -0 1.4803e-16)
(1.4803e-16 -5.1269e-17 -0 1.4803e-16 -0 1.4803e-16)
(1.4803e-16 -5.12934e-17 -0 1.4803e-16 -0 1.4803e-16)
(1.4803e-16 -5.13506e-17 -0 1.4803e-16 -0 1.4803e-16)
(1.4803e-16 -5.14475e-17 -0 1.4803e-16 -0 1.4803e-16)
(1.4803e-16 -5.22924e-17 -0 1.4803e-16 -0 1.4803e-16)
(1.4803e-16 -5.23151e-17 -0 1.4803e-16 -0 1.4803e-16)
(1.4803e-16 -5.2371e-17 -0 1.4803e-16 -0 1.4803e-16)
(1.4803e-16 -5.24825e-17 -0 1.4803e-16 -0 1.4803e-16)
(1.4803e-16 -5.32392e-17 -0 1.4803e-16 -0 1.4803e-16)
(1.4803e-16 -5.32604e-17 -0 1.4803e-16 -0 1.4803e-16)
(1.4803e-16 -5.33158e-17 -0 1.4803e-16 -0 1.4803e-16)
(1.4803e-16 -5.34402e-17 -0 1.4803e-16 -0 1.4803e-16)
(1.4803e-16 -5.41147e-17 -0 1.4803e-16 -0 1.4803e-16)
(1.4803e-16 -5.41348e-17 -0 1.4803e-16 -0 1.4803e-16)
(1.4803e-16 -5.41901e-17 -0 1.4803e-16 -0 1.4803e-16)
(1.4803e-16 -5.43262e-17 -0 1.4803e-16 -0 1.4803e-16)
(1.4803e-16 -5.49249e-17 -0 1.4803e-16 -0 1.4803e-16)
(1.4803e-16 -5.49441e-17 -0 1.4803e-16 -0 1.4803e-16)
(1.4803e-16 -5.49996e-17 -0 1.4803e-16 -0 1.4803e-16)
(1.4803e-16 -5.51466e-17 -0 1.4803e-16 -0 1.4803e-16)
(1.4803e-16 -5.56761e-17 -0 1.4803e-16 -0 1.4803e-16)
(1.4803e-16 -5.56947e-17 -0 1.4803e-16 -0 1.4803e-16)
(1.4803e-16 -5.57506e-17 -0 1.4803e-16 -0 1.4803e-16)
(1.4803e-16 -5.59079e-17 -0 1.4803e-16 -0 1.4803e-16)
(1.4803e-16 -5.63753e-17 -0 1.4803e-16 -0 1.4803e-16)
(1.4803e-16 -5.63935e-17 -0 1.4803e-16 -0 1.4803e-16)
(1.4803e-16 -5.64502e-17 -0 1.4803e-16 -0 1.4803e-16)
(1.4803e-16 -5.66173e-17 -0 1.4803e-16 -0 1.4803e-16)
(1.4803e-16 -5.70302e-17 -0 1.4803e-16 -0 1.4803e-16)
(1.4803e-16 -5.70484e-17 -0 1.4803e-16 -0 1.4803e-16)
(1.4803e-16 -5.71061e-17 -0 1.4803e-16 -0 1.4803e-16)
(1.4803e-16 -5.72827e-17 -0 1.4803e-16 -0 1.4803e-16)
(1.4803e-16 -5.76488e-17 -0 1.4803e-16 -0 1.4803e-16)
(1.4803e-16 -5.76672e-17 -0 1.4803e-16 -0 1.4803e-16)
(1.4803e-16 -5.77261e-17 -0 1.4803e-16 -0 1.4803e-16)
(1.4803e-16 -5.79121e-17 -0 1.4803e-16 -0 1.4803e-16)
(1.4803e-16 -5.82386e-17 -0 1.4803e-16 -0 1.4803e-16)
(1.4803e-16 -5.82575e-17 -0 1.4803e-16 -0 1.4803e-16)
(1.4803e-16 -5.83177e-17 -0 1.4803e-16 -0 1.4803e-16)
(1.4803e-16 -5.85132e-17 -0 1.4803e-16 -0 1.4803e-16)
(1.4803e-16 -5.88061e-17 -0 1.4803e-16 -0 1.4803e-16)
(1.4803e-16 -5.88259e-17 -0 1.4803e-16 -0 1.4803e-16)
(1.4803e-16 -5.88871e-17 -0 1.4803e-16 -0 1.4803e-16)
(1.4803e-16 -5.90926e-17 -0 1.4803e-16 -0 1.4803e-16)
(1.4803e-16 -5.93567e-17 -0 1.4803e-16 -0 1.4803e-16)
(1.4803e-16 -5.93777e-17 -0 1.4803e-16 -0 1.4803e-16)
(1.4803e-16 -5.94395e-17 -0 1.4803e-16 -0 1.4803e-16)
(1.4803e-16 -5.96556e-17 -0 1.4803e-16 -0 1.4803e-16)
(1.4803e-16 -5.98955e-17 -0 1.4803e-16 -0 1.4803e-16)
(1.4803e-16 -5.99181e-17 -0 1.4803e-16 -0 1.4803e-16)
(1.4803e-16 -5.99798e-17 -0 1.4803e-16 -0 1.4803e-16)
(1.4803e-16 -6.02075e-17 -0 1.4803e-16 -0 1.4803e-16)
(1.4803e-16 -6.04282e-17 -0 1.4803e-16 -0 1.4803e-16)
(1.4803e-16 -6.04526e-17 -0 1.4803e-16 -0 1.4803e-16)
(1.4803e-16 -6.05136e-17 -0 1.4803e-16 -0 1.4803e-16)
(1.4803e-16 -6.07537e-17 -0 1.4803e-16 -0 1.4803e-16)
(1.4803e-16 -6.0961e-17 -0 1.4803e-16 -0 1.4803e-16)
(1.4803e-16 -6.09875e-17 -0 1.4803e-16 -0 1.4803e-16)
(1.4803e-16 -6.10473e-17 -0 1.4803e-16 -0 1.4803e-16)
(1.4803e-16 -6.13008e-17 -0 1.4803e-16 -0 1.4803e-16)
(1.4803e-16 -6.15001e-17 -0 1.4803e-16 -0 1.4803e-16)
(1.4803e-16 -6.15283e-17 -0 1.4803e-16 -0 1.4803e-16)
(1.4803e-16 -6.15871e-17 -0 1.4803e-16 -0 1.4803e-16)
(1.4803e-16 -6.1855e-17 -0 1.4803e-16 -0 1.4803e-16)
(1.4803e-16 -6.20489e-17 -0 1.4803e-16 -0 1.4803e-16)
(1.4803e-16 -6.20778e-17 -0 1.4803e-16 -0 1.4803e-16)
(1.4803e-16 -6.21368e-17 -0 1.4803e-16 -0 1.4803e-16)
(1.4803e-16 -6.24197e-17 -0 1.4803e-16 -0 1.4803e-16)
(1.4803e-16 -6.26049e-17 -0 1.4803e-16 -0 1.4803e-16)
(1.4803e-16 -6.26346e-17 -0 1.4803e-16 -0 1.4803e-16)
(1.4803e-16 -6.26938e-17 -0 1.4803e-16 -0 1.4803e-16)
(1.4803e-16 -6.29929e-17 -0 1.4803e-16 -0 1.4803e-16)
(1.4803e-16 -6.31583e-17 -0 1.4803e-16 -0 1.4803e-16)
(1.4803e-16 -6.31903e-17 -0 1.4803e-16 -0 1.4803e-16)
(1.4803e-16 -6.32492e-17 -0 1.4803e-16 -0 1.4803e-16)
(1.4803e-16 -6.35664e-17 -0 1.4803e-16 -0 1.4803e-16)
(1.4803e-16 -6.36939e-17 -0 1.4803e-16 -0 1.4803e-16)
(1.4803e-16 -6.37335e-17 -0 1.4803e-16 -0 1.4803e-16)
(1.4803e-16 -6.3791e-17 -0 1.4803e-16 -0 1.4803e-16)
(1.4803e-16 -6.41283e-17 -0 1.4803e-16 -0 1.4803e-16)
(1.4803e-16 -6.41919e-17 -0 1.4803e-16 -0 1.4803e-16)
(1.4803e-16 -6.42546e-17 -0 1.4803e-16 -0 1.4803e-16)
(1.4803e-16 -6.43078e-17 -0 1.4803e-16 -0 1.4803e-16)
(1.4803e-16 -6.46659e-17 -0 1.4803e-16 -0 1.4803e-16)
(1.4803e-16 -6.468e-17 -0 1.4803e-16 -0 1.4803e-16)
(1.4803e-16 -6.47311e-17 -0 1.4803e-16 -0 1.4803e-16)
(1.4803e-16 -6.47916e-17 -0 1.4803e-16 -0 1.4803e-16)
(1.4803e-16 -6.5168e-17 -0 1.4803e-16 -0 1.4803e-16)
(1.4803e-16 -6.51429e-17 -0 1.4803e-16 -0 1.4803e-16)
(1.4803e-16 -6.51618e-17 -0 1.4803e-16 -0 1.4803e-16)
(1.4803e-16 -6.52363e-17 -0 1.4803e-16 -0 1.4803e-16)
(1.4803e-16 -6.56259e-17 -0 1.4803e-16 -0 1.4803e-16)
(1.4803e-16 -6.55389e-17 -0 1.4803e-16 -0 1.4803e-16)
(1.4803e-16 -6.55547e-17 -0 1.4803e-16 -0 1.4803e-16)
(1.4803e-16 -6.56355e-17 -0 1.4803e-16 -0 1.4803e-16)
(1.4803e-16 -6.60348e-17 -0 1.4803e-16 -0 1.4803e-16)
(1.4803e-16 -6.58862e-17 -0 1.4803e-16 -0 1.4803e-16)
(1.4803e-16 -6.58959e-17 -0 1.4803e-16 -0 1.4803e-16)
(1.4803e-16 -6.59884e-17 -0 1.4803e-16 -0 1.4803e-16)
(1.48062e-16 -6.64056e-17 -0 1.48062e-16 -0 1.48062e-16)
(1.48051e-16 -6.61909e-17 -0 1.48051e-16 -0 1.48051e-16)
(1.4803e-16 -6.61755e-17 -0 1.4803e-16 -0 1.4803e-16)
(1.4803e-16 -6.62956e-17 -0 1.4803e-16 -0 1.4803e-16)
(1.48174e-16 -6.6758e-17 -0 1.48174e-16 -0 1.48174e-16)
(1.48157e-16 -6.64766e-17 -0 1.48157e-16 -0 1.48157e-16)
(1.4803e-16 -6.63971e-17 -0 1.4803e-16 -0 1.4803e-16)
(1.48051e-16 -6.65556e-17 -0 1.48051e-16 -0 1.48051e-16)
(1.48294e-16 -6.70625e-17 -0 1.48294e-16 -0 1.48294e-16)
(1.48265e-16 -6.67043e-17 -0 1.48265e-16 -0 1.48265e-16)
(1.48093e-16 -6.66073e-17 -0 1.48093e-16 -0 1.48093e-16)
(1.48115e-16 -6.67734e-17 -0 1.48115e-16 -0 1.48115e-16)
(1.48405e-16 -6.731e-17 -0 1.48405e-16 -0 1.48405e-16)
(1.48357e-16 -6.68653e-17 -0 1.48357e-16 -0 1.48357e-16)
(1.48151e-16 -6.67628e-17 -0 1.48151e-16 -0 1.48151e-16)
(1.48174e-16 -6.69307e-17 -0 1.48174e-16 -0 1.48174e-16)
(1.48495e-16 -6.74941e-17 -0 1.48495e-16 -0 1.48495e-16)
(1.48419e-16 -6.69654e-17 -0 1.48419e-16 -0 1.48419e-16)
(1.48192e-16 -6.6854e-17 -0 1.48192e-16 -0 1.48192e-16)
(1.48214e-16 -6.70268e-17 -0 1.48214e-16 -0 1.48214e-16)
(1.48552e-16 -6.76098e-17 -0 1.48552e-16 -0 1.48552e-16)
(1.48441e-16 -6.69842e-17 -0 1.48441e-16 -0 1.48441e-16)
(1.48208e-16 -6.68846e-17 -0 1.48208e-16 -0 1.48208e-16)
(1.48228e-16 -6.7058e-17 -0 1.48228e-16 -0 1.48228e-16)
(1.48572e-16 -6.7652e-17 -0 1.48572e-16 -0 1.48572e-16)
(1.48422e-16 -6.69384e-17 -0 1.48422e-16 -0 1.48422e-16)
(1.48194e-16 -6.68461e-17 -0 1.48194e-16 -0 1.48194e-16)
(1.48214e-16 -6.70214e-17 -0 1.48214e-16 -0 1.48214e-16)
(1.48553e-16 -6.76218e-17 -0 1.48553e-16 -0 1.48553e-16)
(1.48362e-16 -6.68245e-17 -0 1.48362e-16 -0 1.48362e-16)
(1.48153e-16 -6.67406e-17 -0 1.48153e-16 -0 1.48153e-16)
(1.48173e-16 -6.69185e-17 -0 1.48173e-16 -0 1.48173e-16)
(1.48496e-16 -6.75185e-17 -0 1.48496e-16 -0 1.48496e-16)
(1.48271e-16 -6.66421e-17 -0 1.48271e-16 -0 1.48271e-16)
(1.48093e-16 -6.65724e-17 -0 1.48093e-16 -0 1.48093e-16)
(1.48114e-16 -6.67524e-17 -0 1.48114e-16 -0 1.48114e-16)
(1.48407e-16 -6.73432e-17 -0 1.48407e-16 -0 1.48407e-16)
(1.48159e-16 -6.63962e-17 -0 1.48159e-16 -0 1.48159e-16)
(1.4803e-16 -6.63482e-17 -0 1.4803e-16 -0 1.4803e-16)
(1.48049e-16 -6.65271e-17 -0 1.48049e-16 -0 1.48049e-16)
(1.48296e-16 -6.70986e-17 -0 1.48296e-16 -0 1.48296e-16)
(1.48048e-16 -6.60957e-17 -0 1.48048e-16 -0 1.48048e-16)
(1.4803e-16 -6.6098e-17 -0 1.4803e-16 -0 1.4803e-16)
(1.4803e-16 -6.62612e-17 -0 1.4803e-16 -0 1.4803e-16)
(1.48176e-16 -6.67881e-17 -0 1.48176e-16 -0 1.48176e-16)
(1.4803e-16 -6.57764e-17 -0 1.4803e-16 -0 1.4803e-16)
(1.4803e-16 -6.57965e-17 -0 1.4803e-16 -0 1.4803e-16)
(1.4803e-16 -6.5935e-17 -0 1.4803e-16 -0 1.4803e-16)
(1.48062e-16 -6.64161e-17 -0 1.48062e-16 -0 1.48062e-16)
(1.4803e-16 -6.5381e-17 -0 1.4803e-16 -0 1.4803e-16)
(1.4803e-16 -6.54664e-17 -0 1.4803e-16 -0 1.4803e-16)
(1.4803e-16 -6.55262e-17 -0 1.4803e-16 -0 1.4803e-16)
(1.4803e-16 -6.60121e-17 -0 1.4803e-16 -0 1.4803e-16)
(1.4803e-16 -6.49275e-17 -0 1.4803e-16 -0 1.4803e-16)
(1.4803e-16 -6.4988e-17 -0 1.4803e-16 -0 1.4803e-16)
(1.4803e-16 -6.50711e-17 -0 1.4803e-16 -0 1.4803e-16)
(1.4803e-16 -6.55512e-17 -0 1.4803e-16 -0 1.4803e-16)
(1.4803e-16 -6.4407e-17 -0 1.4803e-16 -0 1.4803e-16)
(1.4803e-16 -6.43869e-17 -0 1.4803e-16 -0 1.4803e-16)
(1.4803e-16 -6.45521e-17 -0 1.4803e-16 -0 1.4803e-16)
(1.4803e-16 -6.5015e-17 -0 1.4803e-16 -0 1.4803e-16)
(1.4803e-16 -6.37859e-17 -0 1.4803e-16 -0 1.4803e-16)
(1.4803e-16 -6.37884e-17 -0 1.4803e-16 -0 1.4803e-16)
(1.4803e-16 -6.39249e-17 -0 1.4803e-16 -0 1.4803e-16)
(1.4803e-16 -6.43948e-17 -0 1.4803e-16 -0 1.4803e-16)
(1.4803e-16 -6.30608e-17 -0 1.4803e-16 -0 1.4803e-16)
(1.4803e-16 -6.31586e-17 -0 1.4803e-16 -0 1.4803e-16)
(1.4803e-16 -6.31943e-17 -0 1.4803e-16 -0 1.4803e-16)
(1.4803e-16 -6.36865e-17 -0 1.4803e-16 -0 1.4803e-16)
(1.4803e-16 -6.22299e-17 -0 1.4803e-16 -0 1.4803e-16)
(1.4803e-16 -6.23718e-17 -0 1.4803e-16 -0 1.4803e-16)
(1.4803e-16 -6.23901e-17 -0 1.4803e-16 -0 1.4803e-16)
(1.4803e-16 -6.28858e-17 -0 1.4803e-16 -0 1.4803e-16)
(1.4803e-16 -6.13154e-17 -0 1.4803e-16 -0 1.4803e-16)
(1.4803e-16 -6.14753e-17 -0 1.4803e-16 -0 1.4803e-16)
(1.4803e-16 -6.1484e-17 -0 1.4803e-16 -0 1.4803e-16)
(1.4803e-16 -6.19846e-17 -0 1.4803e-16 -0 1.4803e-16)
(1.4803e-16 -6.03033e-17 -0 1.4803e-16 -0 1.4803e-16)
(1.4803e-16 -6.04684e-17 -0 1.4803e-16 -0 1.4803e-16)
(1.4803e-16 -6.0469e-17 -0 1.4803e-16 -0 1.4803e-16)
(1.4803e-16 -6.09754e-17 -0 1.4803e-16 -0 1.4803e-16)
(1.4803e-16 -5.91811e-17 -0 1.4803e-16 -0 1.4803e-16)
(1.4803e-16 -5.93466e-17 -0 1.4803e-16 -0 1.4803e-16)
(1.4803e-16 -5.93398e-17 -0 1.4803e-16 -0 1.4803e-16)
(1.4803e-16 -5.98499e-17 -0 1.4803e-16 -0 1.4803e-16)
(1.4803e-16 -5.79377e-17 -0 1.4803e-16 -0 1.4803e-16)
(1.4803e-16 -5.81037e-17 -0 1.4803e-16 -0 1.4803e-16)
(1.4803e-16 -5.80928e-17 -0 1.4803e-16 -0 1.4803e-16)
(1.4803e-16 -5.85994e-17 -0 1.4803e-16 -0 1.4803e-16)
(1.4803e-16 -5.65626e-17 -0 1.4803e-16 -0 1.4803e-16)
(1.4803e-16 -5.67314e-17 -0 1.4803e-16 -0 1.4803e-16)
(1.4803e-16 -5.67198e-17 -0 1.4803e-16 -0 1.4803e-16)
(1.4803e-16 -5.7215e-17 -0 1.4803e-16 -0 1.4803e-16)
(1.4803e-16 -5.50458e-17 -0 1.4803e-16 -0 1.4803e-16)
(1.4803e-16 -5.52172e-17 -0 1.4803e-16 -0 1.4803e-16)
(1.4803e-16 -5.52098e-17 -0 1.4803e-16 -0 1.4803e-16)
(1.4803e-16 -5.56857e-17 -0 1.4803e-16 -0 1.4803e-16)
(1.4803e-16 -5.33756e-17 -0 1.4803e-16 -0 1.4803e-16)
(1.4803e-16 -5.35456e-17 -0 1.4803e-16 -0 1.4803e-16)
(1.4803e-16 -5.35432e-17 -0 1.4803e-16 -0 1.4803e-16)
(1.4803e-16 -5.40038e-17 -0 1.4803e-16 -0 1.4803e-16)
(1.4803e-16 -5.154e-17 -0 1.4803e-16 -0 1.4803e-16)
(1.4803e-16 -5.17086e-17 -0 1.4803e-16 -0 1.4803e-16)
(1.4803e-16 -5.17126e-17 -0 1.4803e-16 -0 1.4803e-16)
(1.4803e-16 -5.21539e-17 -0 1.4803e-16 -0 1.4803e-16)
(1.4803e-16 -4.95279e-17 -0 1.4803e-16 -0 1.4803e-16)
(1.4803e-16 -4.96936e-17 -0 1.4803e-16 -0 1.4803e-16)
(1.4803e-16 -4.9702e-17 -0 1.4803e-16 -0 1.4803e-16)
(1.4803e-16 -5.01242e-17 -0 1.4803e-16 -0 1.4803e-16)
(1.4803e-16 -4.73273e-17 -0 1.4803e-16 -0 1.4803e-16)
(1.4803e-16 -4.74876e-17 -0 1.4803e-16 -0 1.4803e-16)
(1.4803e-16 -4.74978e-17 -0 1.4803e-16 -0 1.4803e-16)
(1.4803e-16 -4.79018e-17 -0 1.4803e-16 -0 1.4803e-16)
(1.4803e-16 -4.49255e-17 -0 1.4803e-16 -0 1.4803e-16)
(1.4803e-16 -4.50766e-17 -0 1.4803e-16 -0 1.4803e-16)
(1.4803e-16 -4.50872e-17 -0 1.4803e-16 -0 1.4803e-16)
(1.4803e-16 -4.54738e-17 -0 1.4803e-16 -0 1.4803e-16)
(1.4803e-16 -4.23092e-17 -0 1.4803e-16 -0 1.4803e-16)
(1.4803e-16 -4.24465e-17 -0 1.4803e-16 -0 1.4803e-16)
(1.4803e-16 -4.24578e-17 -0 1.4803e-16 -0 1.4803e-16)
(1.4803e-16 -4.28274e-17 -0 1.4803e-16 -0 1.4803e-16)
(1.4803e-16 -3.94648e-17 -0 1.4803e-16 -0 1.4803e-16)
(1.4803e-16 -3.95817e-17 -0 1.4803e-16 -0 1.4803e-16)
(1.4803e-16 -3.95982e-17 -0 1.4803e-16 -0 1.4803e-16)
(1.4803e-16 -3.99513e-17 -0 1.4803e-16 -0 1.4803e-16)
(1.4803e-16 -3.63775e-17 -0 1.4803e-16 -0 1.4803e-16)
(1.4803e-16 -3.64638e-17 -0 1.4803e-16 -0 1.4803e-16)
(1.4803e-16 -3.64978e-17 -0 1.4803e-16 -0 1.4803e-16)
(1.4803e-16 -3.68365e-17 -0 1.4803e-16 -0 1.4803e-16)
(1.4803e-16 -3.30284e-17 -0 1.4803e-16 -0 1.4803e-16)
(1.4803e-16 -3.30681e-17 -0 1.4803e-16 -0 1.4803e-16)
(1.4803e-16 -3.3144e-17 -0 1.4803e-16 -0 1.4803e-16)
(1.4803e-16 -3.34774e-17 -0 1.4803e-16 -0 1.4803e-16)
(1.4803e-16 -2.93869e-17 -0 1.4803e-16 -0 1.4803e-16)
(1.4803e-16 -2.95379e-17 -0 1.4803e-16 -0 1.4803e-16)
(1.4803e-16 -2.94711e-17 -0 1.4803e-16 -0 1.4803e-16)
(1.4803e-16 -2.9863e-17 -0 1.4803e-16 -0 1.4803e-16)
(1.4803e-16 -2.55411e-17 -0 1.4803e-16 -0 1.4803e-16)
(1.4803e-16 -2.5667e-17 -0 1.4803e-16 -0 1.4803e-16)
(1.4803e-16 -2.56113e-17 -0 1.4803e-16 -0 1.4803e-16)
(1.4803e-16 -2.59549e-17 -0 1.4803e-16 -0 1.4803e-16)
(1.4803e-16 -2.14342e-17 -0 1.4803e-16 -0 1.4803e-16)
(1.4803e-16 -2.15277e-17 -0 1.4803e-16 -0 1.4803e-16)
(1.4803e-16 -2.14919e-17 -0 1.4803e-16 -0 1.4803e-16)
(1.4803e-16 -2.17748e-17 -0 1.4803e-16 -0 1.4803e-16)
(1.4803e-16 -1.70746e-17 -0 1.4803e-16 -0 1.4803e-16)
(1.4803e-16 -1.71223e-17 -0 1.4803e-16 -0 1.4803e-16)
(1.4803e-16 -1.71301e-17 -0 1.4803e-16 -0 1.4803e-16)
(1.4803e-16 -1.73269e-17 -0 1.4803e-16 -0 1.4803e-16)
(1.4803e-16 -1.24804e-17 -0 1.4803e-16 -0 1.4803e-16)
(1.4803e-16 -1.24578e-17 -0 1.4803e-16 -0 1.4803e-16)
(1.4803e-16 -1.25355e-17 -0 1.4803e-16 -0 1.4803e-16)
(1.4803e-16 -1.26275e-17 -0 1.4803e-16 -0 1.4803e-16)
(1.4803e-16 -7.62144e-18 -0 1.4803e-16 -0 1.4803e-16)
(1.4803e-16 -7.61041e-18 -0 1.4803e-16 -0 1.4803e-16)
(1.4803e-16 -7.66411e-18 -0 1.4803e-16 -0 1.4803e-16)
(1.4803e-16 -7.7143e-18 -0 1.4803e-16 -0 1.4803e-16)
(1.4803e-16 -2.57135e-18 -0 1.4803e-16 -0 1.4803e-16)
(1.4803e-16 -2.57042e-18 -0 1.4803e-16 -0 1.4803e-16)
(1.4803e-16 -2.58828e-18 -0 1.4803e-16 -0 1.4803e-16)
(1.4803e-16 -2.6064e-18 -0 1.4803e-16 -0 1.4803e-16)
)
;

boundaryField
{
    inlet
    {
        type            cyclic;
    }
    outlet
    {
        type            cyclic;
    }
    fixedWalls-bottom
    {
        type            kqRWallFunction;
        value           uniform (1.4803e-16 -0 -0 1.4803e-16 -0 1.4803e-16);
    }
    fixedWalls-top
    {
        type            symmetry;
    }
    frontAndBack
    {
        type            empty;
    }
}


// ************************************************************************* //
