/*--------------------------------*- C++ -*----------------------------------*\
  =========                 |
  \\      /  F ield         | OpenFOAM: The Open Source CFD Toolbox
   \\    /   O peration     | Website:  https://openfoam.org
    \\  /    A nd           | Version:  10
     \\/     M anipulation  |
\*---------------------------------------------------------------------------*/
FoamFile
{
    format      ascii;
    class       volScalarField;
    location    "5360";
    object      k;
}
// * * * * * * * * * * * * * * * * * * * * * * * * * * * * * * * * * * * * * //

dimensions      [0 2 -2 0 0 0 0];

internalField   nonuniform List<scalar> 
400
(
9.24557e-06
9.24634e-06
9.24627e-06
9.24603e-06
0.000274298
0.000274321
0.000274318
0.000274311
0.00165687
0.001657
0.00165698
0.00165695
0.00362155
0.00362173
0.00362168
0.00362162
0.00498673
0.00498686
0.00498679
0.00498673
0.00584355
0.00584363
0.00584353
0.00584349
0.00638473
0.00638475
0.00638464
0.00638462
0.0067357
0.00673568
0.00673556
0.00673557
0.00696982
0.00696977
0.00696965
0.00696968
0.00712965
0.00712959
0.00712948
0.00712953
0.00724024
0.00724018
0.00724008
0.00724014
0.00731673
0.00731668
0.00731659
0.00731666
0.00736849
0.00736845
0.00736837
0.00736845
0.0074015
0.00740146
0.0074014
0.00740148
0.00741995
0.00741991
0.00741986
0.00741995
0.00742685
0.00742682
0.00742678
0.00742687
0.00742444
0.00742441
0.00742438
0.00742447
0.00741438
0.00741435
0.00741433
0.00741442
0.00739795
0.00739792
0.00739791
0.007398
0.00737614
0.00737612
0.00737611
0.00737619
0.00734974
0.00734972
0.00734971
0.00734979
0.00731938
0.00731935
0.00731935
0.00731943
0.00728556
0.00728554
0.00728554
0.00728561
0.00724871
0.00724869
0.00724869
0.00724875
0.00720918
0.00720916
0.00720916
0.00720922
0.00716725
0.00716724
0.00716724
0.00716729
0.00712319
0.00712318
0.00712319
0.00712323
0.00707722
0.0070772
0.00707721
0.00707724
0.00702951
0.0070295
0.00702951
0.00702953
0.00698023
0.00698022
0.00698024
0.00698024
0.00692951
0.00692951
0.00692952
0.00692952
0.00687741
0.00687741
0.00687743
0.00687741
0.00682395
0.00682395
0.00682397
0.00682394
0.00676913
0.00676914
0.00676916
0.00676912
0.00671295
0.00671296
0.00671299
0.00671293
0.00665541
0.00665543
0.00665545
0.00665539
0.00659651
0.00659653
0.00659656
0.00659649
0.00653625
0.00653627
0.0065363
0.00653622
0.00647462
0.00647465
0.00647468
0.0064746
0.00641163
0.00641166
0.0064117
0.00641161
0.00634729
0.00634732
0.00634736
0.00634727
0.00628161
0.00628163
0.00628169
0.00628158
0.00621462
0.00621465
0.0062147
0.0062146
0.00614638
0.00614641
0.00614648
0.00614636
0.006077
0.00607703
0.00607709
0.00607698
0.0060066
0.00600663
0.0060067
0.00600658
0.00593538
0.00593542
0.00593548
0.00593536
0.00586358
0.00586361
0.00586367
0.00586356
0.00579147
0.00579149
0.00579154
0.00579145
0.00571929
0.00571931
0.00571935
0.00571929
0.00564725
0.00564726
0.00564731
0.00564726
0.00557539
0.0055754
0.00557544
0.00557541
0.00550351
0.00550352
0.00550356
0.00550351
0.00543146
0.00543147
0.0054315
0.00543145
0.00535926
0.00535927
0.0053593
0.00535924
0.00528692
0.00528693
0.00528696
0.00528689
0.00521446
0.00521448
0.0052145
0.00521443
0.00514189
0.00514191
0.00514194
0.00514185
0.00506922
0.00506925
0.00506927
0.00506919
0.00499648
0.00499651
0.00499654
0.00499645
0.00492368
0.00492371
0.00492374
0.00492365
0.00485084
0.00485087
0.0048509
0.00485081
0.00477799
0.00477802
0.00477805
0.00477796
0.00470515
0.00470518
0.00470521
0.00470513
0.00463237
0.0046324
0.00463243
0.00463235
0.00455967
0.0045597
0.00455974
0.00455966
0.00448711
0.00448713
0.00448717
0.0044871
0.00441472
0.00441474
0.00441478
0.00441472
0.00434257
0.00434258
0.00434262
0.00434256
0.0042707
0.00427071
0.00427074
0.00427069
0.00419917
0.00419918
0.00419922
0.00419917
0.00412806
0.00412807
0.0041281
0.00412805
0.00405743
0.00405744
0.00405747
0.00405743
0.00398736
0.00398737
0.0039874
0.00398736
0.00391795
0.00391795
0.00391798
0.00391795
0.00384927
0.00384928
0.0038493
0.00384927
0.00378143
0.00378143
0.00378145
0.00378143
0.00371453
0.00371453
0.00371455
0.00371453
0.00364868
0.00364869
0.0036487
0.00364868
0.00358401
0.00358401
0.00358403
0.00358401
0.00352064
0.00352064
0.00352066
0.00352065
0.00345871
0.00345871
0.00345872
0.00345872
0.00339837
0.00339837
0.00339837
0.00339838
0.00333976
0.00333976
0.00333976
0.00333977
0.00328304
0.00328304
0.00328304
0.00328305
0.00322839
0.00322839
0.00322839
0.0032284
0.00317597
0.00317597
0.00317597
0.00317599
0.00312597
0.00312597
0.00312598
0.00312599
0.00307858
0.00307858
0.00307858
0.0030786
0.00303399
0.00303399
0.00303399
0.00303401
0.00299239
0.00299239
0.00299239
0.00299241
0.002954
0.002954
0.002954
0.00295402
0.00291901
0.00291901
0.00291901
0.00291903
0.00288764
0.00288764
0.00288764
0.00288766
0.00286009
0.00286009
0.0028601
0.00286012
0.0028366
0.0028366
0.0028366
0.00283662
0.00281736
0.00281736
0.00281737
0.00281739
0.00280261
0.00280261
0.00280261
0.00280263
0.00279256
0.00279256
0.00279256
0.00279258
0.00278742
0.00278742
0.00278742
0.00278745
)
;

boundaryField
{
    inlet
    {
        type            cyclic;
    }
    outlet
    {
        type            cyclic;
    }
    fixedWalls-bottom
    {
        type            kqRWallFunction;
        value           nonuniform List<scalar> 4(9.24557e-06 9.24634e-06 9.24627e-06 9.24603e-06);
    }
    fixedWalls-top
    {
        type            symmetry;
    }
    frontAndBack
    {
        type            empty;
    }
}


// ************************************************************************* //
