/*--------------------------------*- C++ -*----------------------------------*\
  =========                 |
  \\      /  F ield         | OpenFOAM: The Open Source CFD Toolbox
   \\    /   O peration     | Website:  https://openfoam.org
    \\  /    A nd           | Version:  10
     \\/     M anipulation  |
\*---------------------------------------------------------------------------*/
FoamFile
{
    format      ascii;
    class       volScalarField;
    location    "5360";
    object      omega;
}
// * * * * * * * * * * * * * * * * * * * * * * * * * * * * * * * * * * * * * //

dimensions      [0 0 -1 0 0 0 0];

internalField   nonuniform List<scalar> 
400
(
1315.23
1315.23
1315.23
1315.23
237.639
237.639
237.639
237.639
97.8126
97.8109
97.8106
97.8108
58.5457
58.5437
58.5438
58.5441
40.4181
40.4169
40.417
40.4173
30.0881
30.0877
30.0879
30.0882
23.5518
23.5519
23.5522
23.5524
19.1296
19.1299
19.1303
19.1304
15.9859
15.9863
15.9866
15.9866
13.6615
13.6619
13.6622
13.6621
11.8847
11.8851
11.8853
11.8852
10.4866
10.4868
10.4869
10.4868
9.35968
9.3599
9.35993
9.35976
8.43353
8.43368
8.4337
8.43348
7.65969
7.65977
7.65977
7.65953
7.00386
7.00389
7.00388
7.00362
6.44117
6.44116
6.44115
6.44087
5.95316
5.95314
5.95312
5.95284
5.52591
5.52588
5.52585
5.52557
5.14869
5.14865
5.14862
5.14835
4.81313
4.81309
4.81306
4.81281
4.51262
4.51258
4.51256
4.51233
4.24188
4.24185
4.24182
4.24162
3.99661
3.9966
3.99657
3.9964
3.77335
3.77334
3.7733
3.77317
3.5692
3.56919
3.56914
3.56905
3.38177
3.38175
3.3817
3.38167
3.20906
3.20905
3.20899
3.209
3.04941
3.04939
3.04934
3.04939
2.90141
2.90139
2.90136
2.90144
2.76383
2.76384
2.76382
2.76393
2.6356
2.63562
2.63561
2.63575
2.51574
2.51578
2.51577
2.51596
2.40344
2.40349
2.4035
2.40372
2.29801
2.29805
2.29808
2.29834
2.19882
2.19885
2.1989
2.19921
2.10535
2.10533
2.10543
2.10577
2.0171
2.01709
2.0172
2.01758
1.93369
1.93368
1.9338
1.93421
1.85476
1.85475
1.85487
1.85531
1.77998
1.77997
1.78009
1.78056
1.70906
1.70907
1.70917
1.70966
1.64174
1.64178
1.64182
1.64233
1.57773
1.5778
1.57783
1.57835
1.51688
1.51694
1.51697
1.51748
1.45897
1.45902
1.45905
1.45956
1.40385
1.40389
1.40392
1.40442
1.3514
1.35143
1.35146
1.35194
1.30151
1.30153
1.30156
1.30204
1.2541
1.25412
1.25415
1.25463
1.20906
1.20908
1.20912
1.2096
1.16627
1.1663
1.16634
1.16682
1.12555
1.1256
1.12564
1.12611
1.0868
1.08686
1.0869
1.08735
1.04998
1.05003
1.05008
1.05051
1.01503
1.01503
1.01511
1.01552
0.981816
0.9818
0.981913
0.982282
0.950273
0.950271
0.950379
0.950723
0.920313
0.920316
0.920415
0.92074
0.891834
0.891838
0.891926
0.892229
0.864732
0.864735
0.864808
0.86509
0.838906
0.838915
0.838962
0.839227
0.814252
0.814279
0.814301
0.814549
0.790683
0.790733
0.790743
0.790972
0.768155
0.7682
0.768209
0.768421
0.746583
0.746622
0.746631
0.746827
0.725906
0.72594
0.72595
0.726129
0.706071
0.706102
0.706112
0.706273
0.687031
0.687056
0.687069
0.687212
0.668745
0.66876
0.668777
0.668902
0.651176
0.651169
0.651199
0.651304
0.634271
0.634266
0.634293
0.634384
0.618012
0.618008
0.61803
0.618109
0.60237
0.602365
0.602383
0.602451
0.587316
0.587313
0.587325
0.587382
0.572828
0.572827
0.572833
0.572879
0.558884
0.558882
0.558886
0.55892
0.545467
0.54546
0.545464
0.545487
0.532559
0.532549
0.532554
0.532565
0.520143
0.520136
0.52014
0.520138
0.508215
0.508209
0.508209
0.508196
0.496766
0.496756
0.496757
0.496733
0.485783
0.48578
0.485774
0.485744
0.475278
0.475267
0.475266
0.475224
0.465233
0.465234
0.465221
0.465179
0.45567
0.455673
0.455648
0.455611
0.44659
0.446592
0.446565
0.446524
0.438001
0.438003
0.437977
0.437929
0.429919
0.429919
0.429897
0.429842
0.42236
0.422345
0.422335
0.422279
0.415338
0.415328
0.415313
0.415258
0.408878
0.408884
0.408854
0.4088
0.403009
0.403015
0.40298
0.402934
0.397756
0.397761
0.397726
0.397682
0.393149
0.393153
0.393119
0.393075
0.389218
0.389222
0.389192
0.389145
0.385999
0.385997
0.385975
0.385924
0.383526
0.383503
0.3835
0.383449
0.381833
0.381803
0.381803
0.381751
0.380958
0.380919
0.380919
0.380868
)
;

boundaryField
{
    inlet
    {
        type            cyclic;
    }
    outlet
    {
        type            cyclic;
    }
    fixedWalls-bottom
    {
        beta1           0.075;
        blended         0;
        type            omegaWallFunction;
        value           uniform 1315.23;
    }
    fixedWalls-top
    {
        type            symmetry;
    }
    frontAndBack
    {
        type            empty;
    }
}


// ************************************************************************* //
