/*--------------------------------*- C++ -*----------------------------------*\
  =========                 |
  \\      /  F ield         | OpenFOAM: The Open Source CFD Toolbox
   \\    /   O peration     | Website:  https://openfoam.org
    \\  /    A nd           | Version:  10
     \\/     M anipulation  |
\*---------------------------------------------------------------------------*/
FoamFile
{
    format      ascii;
    class       surfaceScalarField;
    location    "5360";
    object      phi;
}
// * * * * * * * * * * * * * * * * * * * * * * * * * * * * * * * * * * * * * //

dimensions      [0 3 -1 0 0 0 0];

internalField   nonuniform List<scalar> 
696
(
0.000654974
-1.58532e-09
0.000654978
-3.53927e-09
0.000654976
1.57718e-09
3.53937e-09
0.00198711
-6.88904e-09
0.00198712
-1.34615e-08
0.00198711
6.88103e-09
1.34619e-08
0.0032511
-1.56562e-08
0.00325112
-2.43583e-08
0.00325111
1.56485e-08
2.43589e-08
0.00425999
-2.55553e-08
0.00425999
-2.80636e-08
0.00425998
2.55476e-08
2.80643e-08
0.00502
-3.56775e-08
0.00502
-2.58623e-08
0.00501999
3.567e-08
2.58632e-08
0.00561916
-4.54147e-08
0.00561915
-2.09247e-08
0.00561914
4.54073e-08
2.09256e-08
0.00611478
-5.38237e-08
0.00611477
-1.44645e-08
0.00611476
5.38163e-08
1.44655e-08
0.0065415
-6.00076e-08
0.00654149
-6.71672e-09
0.00654148
6.00003e-08
6.71783e-09
0.00692087
-6.30428e-08
0.00692086
2.47871e-09
0.00692086
6.30356e-08
-2.47754e-09
0.00726685
-6.22766e-08
0.00726684
1.27077e-08
0.00726684
6.22695e-08
-1.27065e-08
0.00758891
-5.84488e-08
0.0075889
2.1566e-08
0.00758891
5.84418e-08
-2.15648e-08
0.00789363
-5.26836e-08
0.00789363
2.79652e-08
0.00789363
5.26765e-08
-2.79639e-08
0.00818542
-4.57119e-08
0.00818541
3.263e-08
0.00818542
4.57049e-08
-3.26287e-08
0.00846731
-3.81675e-08
0.00846731
3.6034e-08
0.00846732
3.81606e-08
-3.60326e-08
0.00874161
-3.05297e-08
0.00874161
3.85441e-08
0.00874162
3.05229e-08
-3.85427e-08
0.00901008
-2.31926e-08
0.00901008
4.04364e-08
0.00901009
2.31858e-08
-4.0435e-08
0.0092741
-1.64679e-08
0.0092741
4.18694e-08
0.00927411
1.64612e-08
-4.18679e-08
0.00953478
-1.05911e-08
0.00953477
4.28986e-08
0.00953478
1.05844e-08
-4.28971e-08
0.009793
-5.72126e-09
0.009793
4.35219e-08
0.009793
5.71467e-09
-4.35204e-08
0.0100495
-1.94846e-09
0.0100495
4.37171e-08
0.0100495
1.94189e-09
-4.37155e-08
0.0103049
6.93767e-10
0.0103049
4.34521e-08
0.0103049
-7.0024e-10
-4.34505e-08
0.0105597
2.21966e-09
0.0105597
4.26941e-08
0.0105597
-2.22611e-09
-4.26925e-08
0.0108144
2.68088e-09
0.0108144
4.14102e-08
0.0108144
-2.68724e-09
-4.14085e-08
0.0110693
2.14655e-09
0.0110693
3.9547e-08
0.0110693
-2.15289e-09
-3.95454e-08
0.0113248
7.18348e-10
0.0113248
3.71443e-08
0.0113248
-7.24595e-10
-3.71427e-08
0.0115811
-1.44342e-09
0.0115811
3.4399e-08
0.0115811
1.4372e-09
-3.43973e-08
0.0118385
-4.1081e-09
0.0118385
3.16031e-08
0.0118385
4.10197e-09
-3.16014e-08
0.0120972
-6.97139e-09
0.0120972
2.9071e-08
0.0120972
6.96528e-09
-2.90692e-08
0.0123575
-9.6621e-09
0.0123575
2.70015e-08
0.0123575
9.65608e-09
-2.69998e-08
0.0126194
-1.17169e-08
0.0126194
2.53798e-08
0.0126194
1.17109e-08
-2.53781e-08
0.0128833
-1.27421e-08
0.0128833
2.40157e-08
0.0128833
1.27362e-08
-2.40139e-08
0.0131493
-1.26923e-08
0.0131493
2.28228e-08
0.0131493
1.26864e-08
-2.2821e-08
0.0134177
-1.1813e-08
0.0134177
2.18832e-08
0.0134177
1.18072e-08
-2.18814e-08
0.0136885
-1.04164e-08
0.0136885
2.12542e-08
0.0136885
1.04106e-08
-2.12524e-08
0.0139621
-8.76556e-09
0.0139621
2.09199e-08
0.0139621
8.75986e-09
-2.09181e-08
0.0142384
-7.03945e-09
0.0142384
2.08091e-08
0.0142384
7.03378e-09
-2.08072e-08
0.0145176
-5.34593e-09
0.0145176
2.08369e-08
0.0145176
5.34034e-09
-2.08351e-08
0.0147998
-3.75584e-09
0.0147998
2.09467e-08
0.0147998
3.75029e-09
-2.09448e-08
0.0150852
-2.32544e-09
0.0150852
2.11465e-08
0.0150852
2.31997e-09
-2.11446e-08
0.0153738
-1.08828e-09
0.0153738
2.15318e-08
0.0153738
1.08284e-09
-2.15299e-08
0.0156656
-1.00697e-11
0.0156656
2.22799e-08
0.0156656
4.71322e-12
-2.2278e-08
0.0159609
1.07562e-09
0.0159609
2.35911e-08
0.0159609
-1.08094e-09
-2.35892e-08
0.0162595
2.50877e-09
0.0162595
2.55607e-08
0.0162595
-2.51401e-09
-2.55588e-08
0.0165617
4.74561e-09
0.0165617
2.79839e-08
0.0165617
-4.75081e-09
-2.7982e-08
0.0168674
8.11996e-09
0.0168674
3.01563e-08
0.0168674
-8.12509e-09
-3.01543e-08
0.0171766
1.23819e-08
0.0171766
3.07913e-08
0.0171766
-1.2387e-08
-3.07894e-08
0.0174892
1.61076e-08
0.0174892
2.82224e-08
0.0174892
-1.61126e-08
-2.82205e-08
0.0178053
1.62854e-08
0.0178053
2.10063e-08
0.0178053
-1.62904e-08
-2.10044e-08
0.0181248
8.63449e-09
0.0181248
8.82448e-09
0.0181248
-8.63938e-09
-8.82256e-09
0.0184476
-1.06378e-08
0.0184476
-6.83646e-09
0.0184476
1.06329e-08
6.83836e-09
0.0187738
-4.10318e-08
0.0187739
-2.31873e-08
0.0187738
4.10271e-08
2.31892e-08
0.0191036
-7.17326e-08
0.0191036
-3.89335e-08
0.0191036
7.17279e-08
3.89354e-08
0.0194373
-9.46896e-08
0.0194373
-5.39431e-08
0.0194373
9.4685e-08
5.3945e-08
0.0197751
-1.11081e-07
0.0197751
-6.76208e-08
0.0197751
1.11077e-07
6.76227e-08
0.0201171
-1.21876e-07
0.0201171
-7.94686e-08
0.0201171
1.21871e-07
7.94706e-08
0.0204635
-1.27729e-07
0.0204635
-8.88062e-08
0.0204635
1.27724e-07
8.88081e-08
0.0208142
-1.28988e-07
0.0208142
-9.54125e-08
0.0208142
1.28983e-07
9.54145e-08
0.0211695
-1.26231e-07
0.0211695
-9.96961e-08
0.0211695
1.26227e-07
9.96981e-08
0.0215293
-1.20276e-07
0.0215293
-1.01952e-07
0.0215293
1.20271e-07
1.01954e-07
0.0218937
-1.11854e-07
0.0218937
-1.02327e-07
0.0218937
1.11849e-07
1.02329e-07
0.0222629
-1.01733e-07
0.0222629
-1.00875e-07
0.0222629
1.01728e-07
1.00877e-07
0.0226369
-9.07914e-08
0.0226369
-9.7536e-08
0.0226369
9.07872e-08
9.7538e-08
0.0230158
-7.99458e-08
0.0230158
-9.24008e-08
0.0230158
7.99417e-08
9.24027e-08
0.0233996
-6.98532e-08
0.0233996
-8.60691e-08
0.0233996
6.98492e-08
8.60711e-08
0.0237885
-6.07392e-08
0.0237885
-7.91095e-08
0.0237885
6.07352e-08
7.91114e-08
0.0241825
-5.25585e-08
0.0241825
-7.17304e-08
0.0241825
5.25546e-08
7.17323e-08
0.0245816
-4.52193e-08
0.0245816
-6.41282e-08
0.0245816
4.52155e-08
6.41301e-08
0.024986
-3.86501e-08
0.024986
-5.65169e-08
0.024986
3.86464e-08
5.65188e-08
0.0253956
-3.27858e-08
0.0253956
-4.90712e-08
0.0253956
3.27822e-08
4.9073e-08
0.0258106
-2.75221e-08
0.0258106
-4.18723e-08
0.0258106
2.75185e-08
4.18741e-08
0.026231
-2.25947e-08
0.0262309
-3.48585e-08
0.026231
2.25912e-08
3.48603e-08
0.0266568
-1.78221e-08
0.0266567
-2.80151e-08
0.0266568
1.78187e-08
2.80169e-08
0.027088
-1.32209e-08
0.027088
-2.14288e-08
0.027088
1.32176e-08
2.14305e-08
0.0275248
-8.80856e-09
0.0275248
-1.51348e-08
0.0275248
8.80532e-09
1.51365e-08
0.0279672
-4.63235e-09
0.0279672
-9.14127e-09
0.0279672
4.62922e-09
9.14296e-09
0.0284151
-8.0031e-10
0.0284151
-3.43902e-09
0.0284151
7.97265e-10
3.44067e-09
0.0288687
2.64014e-09
0.0288687
1.95287e-09
0.0288687
-2.64308e-09
-1.95125e-09
0.0293279
5.76384e-09
0.0293279
7.03278e-09
0.0293279
-5.76668e-09
-7.0312e-09
0.0297927
8.65929e-09
0.0297927
1.18046e-08
0.0297927
-8.66203e-09
-1.18031e-08
0.0302632
1.13667e-08
0.0302632
1.61476e-08
0.0302632
-1.13693e-08
-1.61461e-08
0.0307394
1.38101e-08
0.0307394
1.99409e-08
0.0307394
-1.38126e-08
-1.99394e-08
0.0312212
1.59546e-08
0.0312212
2.31606e-08
0.0312212
-1.5957e-08
-2.31592e-08
0.0317087
1.77511e-08
0.0317087
2.57293e-08
0.0317087
-1.77534e-08
-2.5728e-08
0.0322017
1.91721e-08
0.0322017
2.75822e-08
0.0322017
-1.91743e-08
-2.75809e-08
0.0327004
2.01926e-08
0.0327004
2.86834e-08
0.0327004
-2.01946e-08
-2.86822e-08
0.0332046
2.07045e-08
0.0332046
2.91604e-08
0.0332046
-2.07064e-08
-2.91593e-08
0.0337143
2.06876e-08
0.0337143
2.92021e-08
0.0337143
-2.06894e-08
-2.9201e-08
0.0342295
2.01296e-08
0.0342295
2.8803e-08
0.0342295
-2.01312e-08
-2.8802e-08
0.03475
1.90531e-08
0.03475
2.79122e-08
0.03475
-1.90547e-08
-2.79112e-08
0.0352758
1.77947e-08
0.0352758
2.65652e-08
0.0352758
-1.77961e-08
-2.65643e-08
0.0358069
1.6602e-08
0.0358069
2.48357e-08
0.0358069
-1.66033e-08
-2.48349e-08
0.036343
1.52138e-08
0.036343
2.27356e-08
0.036343
-1.52149e-08
-2.27348e-08
0.0368842
1.35063e-08
0.0368842
2.03464e-08
0.0368842
-1.35072e-08
-2.03457e-08
0.0374302
1.16098e-08
0.0374302
1.77832e-08
0.0374302
-1.16106e-08
-1.77826e-08
0.037981
9.59744e-09
0.037981
1.50838e-08
0.037981
-9.5981e-09
-1.50834e-08
0.0385364
7.50963e-09
0.0385364
1.22414e-08
0.0385364
-7.51014e-09
-1.22411e-08
0.0390961
5.40053e-09
0.0390961
9.25295e-09
0.0390961
-5.40088e-09
-9.25268e-09
0.0396601
3.43331e-09
0.0396601
6.17306e-09
0.0396601
-3.4335e-09
-6.1729e-09
0.0402281
1.66036e-09
0.0402281
3.07394e-09
0.0402281
-1.66041e-09
-3.0739e-09
0.0407999
0.0407999
0.0407999
)
;

boundaryField
{
    inlet
    {
        type            cyclic;
        value           nonuniform List<scalar> 
100
(
-0.0407999
-0.0402281
-0.0396601
-0.0390961
-0.0385363
-0.037981
-0.0374302
-0.0368842
-0.036343
-0.0358069
-0.0352758
-0.03475
-0.0342295
-0.0337143
-0.0332046
-0.0327004
-0.0322017
-0.0317087
-0.0312212
-0.0307394
-0.0302632
-0.0297927
-0.0293279
-0.0288687
-0.0284151
-0.0279672
-0.0275248
-0.027088
-0.0266568
-0.026231
-0.0258106
-0.0253956
-0.024986
-0.0245816
-0.0241825
-0.0237885
-0.0233997
-0.0230158
-0.0226369
-0.0222629
-0.0218937
-0.0215293
-0.0211695
-0.0208142
-0.0204635
-0.0201171
-0.0197751
-0.0194372
-0.0191036
-0.0187738
-0.0184476
-0.0181248
-0.0178053
-0.0174892
-0.0171766
-0.0168674
-0.0165617
-0.0162596
-0.0159609
-0.0156656
-0.0153738
-0.0150852
-0.0147998
-0.0145176
-0.0142384
-0.0139621
-0.0136885
-0.0134177
-0.0131493
-0.0128833
-0.0126194
-0.0123575
-0.0120972
-0.0118385
-0.0115811
-0.0113248
-0.0110693
-0.0108144
-0.0105597
-0.0103049
-0.0100495
-0.00979301
-0.00953478
-0.00927411
-0.00901009
-0.00874162
-0.00846732
-0.00818542
-0.00789364
-0.00758891
-0.00726685
-0.00692087
-0.00654149
-0.00611477
-0.00561915
-0.00501999
-0.00425998
-0.0032511
-0.0019871
-0.000654973
)
;
    }
    outlet
    {
        type            cyclic;
        value           nonuniform List<scalar> 
100
(
0.0407999
0.0402281
0.0396601
0.0390961
0.0385363
0.037981
0.0374302
0.0368842
0.036343
0.0358069
0.0352758
0.03475
0.0342295
0.0337143
0.0332046
0.0327004
0.0322017
0.0317087
0.0312212
0.0307394
0.0302632
0.0297927
0.0293279
0.0288687
0.0284151
0.0279672
0.0275248
0.027088
0.0266568
0.026231
0.0258106
0.0253956
0.024986
0.0245816
0.0241825
0.0237885
0.0233997
0.0230158
0.0226369
0.0222629
0.0218937
0.0215293
0.0211695
0.0208142
0.0204635
0.0201171
0.0197751
0.0194372
0.0191036
0.0187738
0.0184476
0.0181248
0.0178053
0.0174892
0.0171766
0.0168674
0.0165617
0.0162596
0.0159609
0.0156656
0.0153738
0.0150852
0.0147998
0.0145176
0.0142384
0.0139621
0.0136885
0.0134177
0.0131493
0.0128833
0.0126194
0.0123575
0.0120972
0.0118385
0.0115811
0.0113248
0.0110693
0.0108144
0.0105597
0.0103049
0.0100495
0.00979301
0.00953478
0.00927411
0.00901009
0.00874162
0.00846732
0.00818542
0.00789364
0.00758891
0.00726685
0.00692087
0.00654149
0.00611477
0.00561915
0.00501999
0.00425998
0.0032511
0.0019871
0.000654973
)
;
    }
    fixedWalls-bottom
    {
        type            calculated;
        value           uniform 0;
    }
    fixedWalls-top
    {
        type            symmetry;
        value           uniform 0;
    }
    frontAndBack
    {
        type            empty;
        value           nonuniform List<scalar> 0();
    }
}


// ************************************************************************* //
