/*--------------------------------*- C++ -*----------------------------------*\
  =========                 |
  \\      /  F ield         | OpenFOAM: The Open Source CFD Toolbox
   \\    /   O peration     | Website:  https://openfoam.org
    \\  /    A nd           | Version:  10
     \\/     M anipulation  |
\*---------------------------------------------------------------------------*/
FoamFile
{
    format      ascii;
    class       volVectorField;
    location    "5360";
    object      U;
}
// * * * * * * * * * * * * * * * * * * * * * * * * * * * * * * * * * * * * * //

dimensions      [0 1 -1 0 0 0 0];

internalField   nonuniform List<vector> 
400
(
(0.0709804 -2.40774e-10 0)
(0.0709811 -8.49339e-10 0)
(0.0709811 2.35659e-10 0)
(0.0709808 8.49519e-10 0)
(0.212351 -3.77614e-09 0)
(0.212353 -8.77377e-09 0)
(0.212353 3.76795e-09 0)
(0.212352 8.77393e-09 0)
(0.342597 -1.09004e-08 0)
(0.342599 -1.97971e-08 0)
(0.342599 1.0892e-08 0)
(0.342597 1.97975e-08 0)
(0.44267 -2.00962e-08 0)
(0.442671 -2.64369e-08 0)
(0.442671 2.00885e-08 0)
(0.442669 2.64376e-08 0)
(0.514392 -3.06668e-08 0)
(0.514393 -2.78994e-08 0)
(0.514392 3.06592e-08 0)
(0.514391 2.79002e-08 0)
(0.567781 -4.08444e-08 0)
(0.567781 -2.41162e-08 0)
(0.56778 4.08369e-08 0)
(0.567779 2.41171e-08 0)
(0.609269 -5.01397e-08 0)
(0.609268 -1.82356e-08 0)
(0.609267 5.01323e-08 0)
(0.609267 1.82366e-08 0)
(0.642723 -5.76068e-08 0)
(0.642723 -1.09591e-08 0)
(0.642721 5.75995e-08 0)
(0.642721 1.09602e-08 0)
(0.670542 -6.22022e-08 0)
(0.670542 -2.1262e-09 0)
(0.67054 6.21949e-08 0)
(0.670541 2.12737e-09 0)
(0.694273 -6.31851e-08 0)
(0.694272 7.9209e-09 0)
(0.694271 6.31779e-08 0)
(0.694272 -7.91972e-09 0)
(0.714961 -6.10174e-08 0)
(0.71496 1.70823e-08 0)
(0.714959 6.10103e-08 0)
(0.71496 -1.7081e-08 0)
(0.733328 -5.59858e-08 0)
(0.733327 2.51483e-08 0)
(0.733327 5.59788e-08 0)
(0.733328 -2.5147e-08 0)
(0.749861 -4.9431e-08 0)
(0.74986 3.07042e-08 0)
(0.74986 4.9424e-08 0)
(0.749861 -3.07029e-08 0)
(0.764898 -4.20164e-08 0)
(0.764898 3.46219e-08 0)
(0.764898 4.20095e-08 0)
(0.764899 -3.46205e-08 0)
(0.778697 -3.43127e-08 0)
(0.778696 3.7499e-08 0)
(0.778696 3.43058e-08 0)
(0.778698 -3.74976e-08 0)
(0.791451 -2.67405e-08 0)
(0.791451 3.96529e-08 0)
(0.791451 2.67337e-08 0)
(0.791452 -3.96515e-08 0)
(0.803315 -1.96453e-08 0)
(0.803314 4.12901e-08 0)
(0.803315 1.96385e-08 0)
(0.803316 -4.12886e-08 0)
(0.81441 -1.33006e-08 0)
(0.81441 4.25065e-08 0)
(0.81441 1.32939e-08 0)
(0.814411 -4.25051e-08 0)
(0.824835 -7.89891e-09 0)
(0.824834 4.33322e-08 0)
(0.824835 7.89227e-09 0)
(0.824835 -4.33307e-08 0)
(0.83467 -3.56529e-09 0)
(0.834669 4.37452e-08 0)
(0.83467 3.55871e-09 0)
(0.83467 -4.37436e-08 0)
(0.843981 -3.57971e-10 0)
(0.843981 4.37164e-08 0)
(0.843981 3.5145e-10 0)
(0.843981 -4.37149e-08 0)
(0.852825 1.71718e-09 0)
(0.852825 4.32143e-08 0)
(0.852825 -1.72364e-09 0)
(0.852825 -4.32127e-08 0)
(0.861248 2.69404e-09 0)
(0.861248 4.21962e-08 0)
(0.861248 -2.70044e-09 0)
(0.861248 -4.21946e-08 0)
(0.86929 2.6268e-09 0)
(0.86929 4.05899e-08 0)
(0.86929 -2.63315e-09 0)
(0.86929 -4.05883e-08 0)
(0.876985 1.60907e-09 0)
(0.876985 3.84283e-08 0)
(0.876985 -1.61536e-09 0)
(0.876985 -3.84267e-08 0)
(0.884362 -2.34808e-10 0)
(0.884362 3.58001e-08 0)
(0.884363 2.28573e-10 0)
(0.884362 -3.57984e-08 0)
(0.891448 -2.71202e-09 0)
(0.891448 3.29744e-08 0)
(0.891448 2.70584e-09 0)
(0.891447 -3.29728e-08 0)
(0.898263 -5.56225e-09 0)
(0.898263 3.02738e-08 0)
(0.898264 5.55613e-09 0)
(0.898263 -3.02721e-08 0)
(0.904829 -8.43631e-09 0)
(0.904829 2.79564e-08 0)
(0.904829 8.43024e-09 0)
(0.904829 -2.79546e-08 0)
(0.911162 -1.08544e-08 0)
(0.911162 2.60983e-08 0)
(0.911163 1.08484e-08 0)
(0.911162 -2.60965e-08 0)
(0.91728 -1.24149e-08 0)
(0.91728 2.45824e-08 0)
(0.91728 1.2409e-08 0)
(0.91728 -2.45807e-08 0)
(0.9232 -1.29153e-08 0)
(0.9232 2.33372e-08 0)
(0.9232 1.29094e-08 0)
(0.9232 -2.33354e-08 0)
(0.928941 -1.24151e-08 0)
(0.928941 2.22864e-08 0)
(0.928941 1.24092e-08 0)
(0.928941 -2.22846e-08 0)
(0.934516 -1.12174e-08 0)
(0.934516 2.15039e-08 0)
(0.934516 1.12116e-08 0)
(0.934516 -2.15021e-08 0)
(0.939935 -9.63809e-09 0)
(0.939935 2.10284e-08 0)
(0.939935 9.63236e-09 0)
(0.939935 -2.10265e-08 0)
(0.945208 -7.90853e-09 0)
(0.945208 2.08185e-08 0)
(0.945208 7.90285e-09 0)
(0.945208 -2.08167e-08 0)
(0.950343 -6.17107e-09 0)
(0.950343 2.07886e-08 0)
(0.950343 6.16544e-09 0)
(0.950343 -2.07868e-08 0)
(0.955347 -4.51225e-09 0)
(0.955347 2.08585e-08 0)
(0.955347 4.50668e-09 0)
(0.955347 -2.08566e-08 0)
(0.960226 -2.99589e-09 0)
(0.960226 2.09983e-08 0)
(0.960226 2.99037e-09 0)
(0.960227 -2.09965e-08 0)
(0.964987 -1.67287e-09 0)
(0.964987 2.12616e-08 0)
(0.964987 1.66741e-09 0)
(0.964987 -2.12597e-08 0)
(0.969634 -5.51768e-10 0)
(0.969634 2.17968e-08 0)
(0.969634 5.46371e-10 0)
(0.969634 -2.17949e-08 0)
(0.974171 4.64572e-10 0)
(0.97417 2.28181e-08 0)
(0.97417 -4.69913e-10 0)
(0.974171 -2.28162e-08 0)
(0.978601 1.64567e-09 0)
(0.978601 2.4509e-08 0)
(0.978601 -1.65096e-09 0)
(0.978601 -2.45071e-08 0)
(0.982927 3.43956e-09 0)
(0.982926 2.68485e-08 0)
(0.982926 -3.4448e-09 0)
(0.982927 -2.68466e-08 0)
(0.987148 6.32918e-09 0)
(0.987148 2.93913e-08 0)
(0.987148 -6.33434e-09 0)
(0.987148 -2.93894e-08 0)
(0.991264 1.04651e-08 0)
(0.991264 3.10957e-08 0)
(0.991264 -1.04702e-08 0)
(0.991265 -3.10939e-08 0)
(0.995273 1.50709e-08 0)
(0.995273 3.03721e-08 0)
(0.995273 -1.5076e-08 0)
(0.995273 -3.03703e-08 0)
(0.999171 1.77765e-08 0)
(0.999171 2.55339e-08 0)
(0.999172 -1.77817e-08 0)
(0.999171 -2.55319e-08 0)
(1.00296 1.43632e-08 0)
(1.00296 1.56863e-08 0)
(1.00296 -1.43682e-08 0)
(1.00295 -1.56837e-08 0)
(1.00662 7.49352e-11 0)
(1.00663 1.60044e-09 0)
(1.00663 -7.93218e-11 0)
(1.00662 -1.59794e-09 0)
(1.01018 -2.60037e-08 0)
(1.01018 -1.45438e-08 0)
(1.01018 2.59989e-08 0)
(1.01018 1.45442e-08 0)
(1.01363 -5.5145e-08 0)
(1.01363 -3.136e-08 0)
(1.01363 5.51398e-08 0)
(1.01363 3.13611e-08 0)
(1.01699 -8.43057e-08 0)
(1.01699 -4.6888e-08 0)
(1.01699 8.43011e-08 0)
(1.01699 4.68909e-08 0)
(1.02028 -1.04597e-07 0)
(1.02028 -6.13318e-08 0)
(1.02028 1.04592e-07 0)
(1.02028 6.1334e-08 0)
(1.0235 -1.1796e-07 0)
(1.0235 -7.41888e-08 0)
(1.0235 1.17955e-07 0)
(1.02349 7.41907e-08 0)
(1.02664 -1.25982e-07 0)
(1.02664 -8.47085e-08 0)
(1.02664 1.25978e-07 0)
(1.02664 8.47104e-08 0)
(1.02972 -1.29293e-07 0)
(1.02972 -9.27729e-08 0)
(1.02972 1.29288e-07 0)
(1.02972 9.27749e-08 0)
(1.03273 -1.28455e-07 0)
(1.03273 -9.81946e-08 0)
(1.03273 1.28451e-07 0)
(1.03273 9.81966e-08 0)
(1.03568 -1.23912e-07 0)
(1.03568 -1.01378e-07 0)
(1.03568 1.23908e-07 0)
(1.03568 1.0138e-07 0)
(1.03856 -1.16508e-07 0)
(1.03856 -1.0265e-07 0)
(1.03856 1.16504e-07 0)
(1.03856 1.02652e-07 0)
(1.04139 -1.07015e-07 0)
(1.04139 -1.02073e-07 0)
(1.04139 1.0701e-07 0)
(1.04139 1.02075e-07 0)
(1.04416 -9.63046e-08 0)
(1.04416 -9.95699e-08 0)
(1.04416 9.63003e-08 0)
(1.04416 9.95718e-08 0)
(1.04688 -8.52815e-08 0)
(1.04687 -9.52374e-08 0)
(1.04687 8.52774e-08 0)
(1.04688 9.52393e-08 0)
(1.04953 -7.47136e-08 0)
(1.04953 -8.95033e-08 0)
(1.04953 7.47096e-08 0)
(1.04953 8.95053e-08 0)
(1.05214 -6.50434e-08 0)
(1.05214 -8.27143e-08 0)
(1.05214 6.50394e-08 0)
(1.05214 8.27163e-08 0)
(1.05469 -5.63892e-08 0)
(1.05469 -7.54526e-08 0)
(1.05469 5.63853e-08 0)
(1.05469 7.54545e-08 0)
(1.05719 -4.86535e-08 0)
(1.05719 -6.79153e-08 0)
(1.05719 4.86496e-08 0)
(1.05719 6.79172e-08 0)
(1.05964 -4.17335e-08 0)
(1.05964 -6.02802e-08 0)
(1.05964 4.17297e-08 0)
(1.05964 6.0282e-08 0)
(1.06204 -3.55608e-08 0)
(1.06204 -5.27329e-08 0)
(1.06204 3.55571e-08 0)
(1.06204 5.27348e-08 0)
(1.06438 -3.00445e-08 0)
(1.06438 -4.54037e-08 0)
(1.06438 3.00409e-08 0)
(1.06438 4.54055e-08 0)
(1.06667 -2.49329e-08 0)
(1.06667 -3.82627e-08 0)
(1.06667 2.49293e-08 0)
(1.06667 3.82646e-08 0)
(1.06892 -2.01409e-08 0)
(1.06892 -3.13593e-08 0)
(1.06892 2.01375e-08 0)
(1.06892 3.13611e-08 0)
(1.07111 -1.54642e-08 0)
(1.07111 -2.46394e-08 0)
(1.0711 1.54608e-08 0)
(1.07111 2.46412e-08 0)
(1.07324 -1.09428e-08 0)
(1.07324 -1.81896e-08 0)
(1.07324 1.09395e-08 0)
(1.07324 1.81914e-08 0)
(1.07533 -6.63388e-09 0)
(1.07533 -1.20392e-08 0)
(1.07533 6.63069e-09 0)
(1.07533 1.20409e-08 0)
(1.07736 -2.64449e-09 0)
(1.07736 -6.18604e-09 0)
(1.07736 2.6414e-09 0)
(1.07736 6.1877e-09 0)
(1.07934 1.00031e-09 0)
(1.07934 -6.51562e-10 0)
(1.07933 -1.0033e-09 0)
(1.07934 6.532e-10 0)
(1.08126 4.28048e-09 0)
(1.08126 4.60515e-09 0)
(1.08126 -4.28337e-09 0)
(1.08126 -4.60355e-09 0)
(1.08312 7.28475e-09 0)
(1.08312 9.54751e-09 0)
(1.08312 -7.28754e-09 0)
(1.08312 -9.54595e-09 0)
(1.08493 1.00832e-08 0)
(1.08493 1.40948e-08 0)
(1.08493 -1.00858e-08 0)
(1.08493 -1.40933e-08 0)
(1.08667 1.26357e-08 0)
(1.08667 1.81943e-08 0)
(1.08667 -1.26383e-08 0)
(1.08667 -1.81928e-08 0)
(1.08836 1.49708e-08 0)
(1.08836 2.17323e-08 0)
(1.08836 -1.49733e-08 0)
(1.08836 -2.17309e-08 0)
(1.08998 1.69118e-08 0)
(1.08998 2.4616e-08 0)
(1.08998 -1.69142e-08 0)
(1.08998 -2.46147e-08 0)
(1.09154 1.85694e-08 0)
(1.09154 2.68395e-08 0)
(1.09154 -1.85717e-08 0)
(1.09154 -2.68382e-08 0)
(1.09303 1.97723e-08 0)
(1.09303 2.82695e-08 0)
(1.09303 -1.97744e-08 0)
(1.09303 -2.82683e-08 0)
(1.09445 2.05555e-08 0)
(1.09445 2.90953e-08 0)
(1.09445 -2.05575e-08 0)
(1.09445 -2.90941e-08 0)
(1.09579 2.08159e-08 0)
(1.09579 2.93274e-08 0)
(1.09579 -2.08178e-08 0)
(1.09579 -2.93262e-08 0)
(1.09707 2.04879e-08 0)
(1.09707 2.91219e-08 0)
(1.09707 -2.04896e-08 0)
(1.09707 -2.91208e-08 0)
(1.09826 1.96114e-08 0)
(1.09826 2.84561e-08 0)
(1.09826 -1.96129e-08 0)
(1.09826 -2.84551e-08 0)
(1.09938 1.85152e-08 0)
(1.09938 2.7345e-08 0)
(1.09938 -1.85167e-08 0)
(1.09938 -2.7344e-08 0)
(1.10041 1.72497e-08 0)
(1.10041 2.57897e-08 0)
(1.10041 -1.7251e-08 0)
(1.10041 -2.57888e-08 0)
(1.10136 1.58815e-08 0)
(1.10136 2.38467e-08 0)
(1.10136 -1.58826e-08 0)
(1.10136 -2.38459e-08 0)
(1.10222 1.43942e-08 0)
(1.10222 2.16066e-08 0)
(1.10222 -1.43952e-08 0)
(1.10222 -2.16059e-08 0)
(1.10298 1.25977e-08 0)
(1.10298 1.91134e-08 0)
(1.10298 -1.25985e-08 0)
(1.10298 -1.91128e-08 0)
(1.10365 1.062e-08 0)
(1.10365 1.64663e-08 0)
(1.10365 -1.06207e-08 0)
(1.10365 -1.64657e-08 0)
(1.10421 8.53878e-09 0)
(1.10421 1.36821e-08 0)
(1.10421 -8.53937e-09 0)
(1.10421 -1.36816e-08 0)
(1.10467 6.41566e-09 0)
(1.10467 1.07529e-08 0)
(1.10467 -6.41609e-09 0)
(1.10467 -1.07526e-08 0)
(1.10503 4.40564e-09 0)
(1.10503 7.7119e-09 0)
(1.10503 -4.40591e-09 0)
(1.10503 -7.71171e-09 0)
(1.10527 2.53705e-09 0)
(1.10527 4.61162e-09 0)
(1.10527 -2.53714e-09 0)
(1.10527 -4.61151e-09 0)
(1.10539 8.32764e-10 0)
(1.10539 1.53208e-09 0)
(1.10539 -8.32793e-10 0)
(1.10539 -1.53204e-09 0)
)
;

boundaryField
{
    inlet
    {
        type            cyclic;
    }
    outlet
    {
        type            cyclic;
    }
    fixedWalls-bottom
    {
        type            noSlip;
    }
    fixedWalls-top
    {
        type            symmetry;
    }
    frontAndBack
    {
        type            empty;
    }
}


// ************************************************************************* //
