/*--------------------------------*- C++ -*----------------------------------*\
  =========                 |
  \\      /  F ield         | OpenFOAM: The Open Source CFD Toolbox
   \\    /   O peration     | Website:  https://openfoam.org
    \\  /    A nd           | Version:  10
     \\/     M anipulation  |
\*---------------------------------------------------------------------------*/
FoamFile
{
    format      ascii;
    class       volScalarField;
    location    "2500";
    object      nut;
}
// * * * * * * * * * * * * * * * * * * * * * * * * * * * * * * * * * * * * * //

dimensions      [0 2 -1 0 0 0 0];

internalField   nonuniform List<scalar> 
400
(
4.03237e-21
4.03237e-21
4.03237e-21
4.03237e-21
2.45895e-20
2.45895e-20
2.45895e-20
2.45895e-20
7.4567e-20
7.4567e-20
7.4567e-20
7.4567e-20
1.60325e-19
1.60325e-19
1.60325e-19
1.60325e-19
2.84416e-19
2.84419e-19
2.84417e-19
2.84419e-19
4.46961e-19
4.4697e-19
4.46965e-19
4.46973e-19
6.46993e-19
6.47017e-19
6.47005e-19
6.47023e-19
8.84276e-19
8.8432e-19
8.84302e-19
8.84333e-19
1.15975e-18
1.15982e-18
1.1598e-18
1.15984e-18
1.47555e-18
1.47564e-18
1.47562e-18
1.47567e-18
1.83444e-18
1.83456e-18
1.83455e-18
1.8346e-18
2.23842e-18
2.23856e-18
2.23857e-18
2.23861e-18
2.68815e-18
2.68834e-18
2.68838e-18
2.68841e-18
3.18344e-18
3.18371e-18
3.18377e-18
3.18378e-18
3.72337e-18
3.72375e-18
3.72386e-18
3.72385e-18
4.30631e-18
4.30685e-18
4.30702e-18
4.30699e-18
4.92986e-18
4.93065e-18
4.93092e-18
4.93085e-18
5.5909e-18
5.59205e-18
5.59245e-18
5.59233e-18
6.28563e-18
6.28725e-18
6.28784e-18
6.28766e-18
7.00966e-18
7.01191e-18
7.01275e-18
7.01249e-18
7.75821e-18
7.76126e-18
7.76244e-18
7.76209e-18
8.52628e-18
8.5303e-18
8.53193e-18
8.53147e-18
9.30884e-18
9.31402e-18
9.31621e-18
9.31563e-18
1.01011e-17
1.01075e-17
1.01104e-17
1.01097e-17
1.08984e-17
1.09063e-17
1.09101e-17
1.09093e-17
1.16968e-17
1.17063e-17
1.17111e-17
1.17103e-17
1.24928e-17
1.25038e-17
1.25098e-17
1.2509e-17
1.32832e-17
1.32958e-17
1.33032e-17
1.33026e-17
1.40656e-17
1.40795e-17
1.40886e-17
1.40886e-17
1.48379e-17
1.4853e-17
1.4864e-17
1.48649e-17
1.55983e-17
1.56142e-17
1.56274e-17
1.56294e-17
1.63456e-17
1.63618e-17
1.63771e-17
1.6381e-17
1.70784e-17
1.70944e-17
1.71118e-17
1.71182e-17
1.77957e-17
1.78111e-17
1.78305e-17
1.78401e-17
1.84964e-17
1.8511e-17
1.85322e-17
1.85457e-17
1.91798e-17
1.91932e-17
1.92158e-17
1.9234e-17
1.9845e-17
1.98573e-17
1.98807e-17
1.99044e-17
2.04914e-17
2.05026e-17
2.05263e-17
2.0556e-17
2.11185e-17
2.11287e-17
2.11522e-17
2.11885e-17
2.17258e-17
2.17353e-17
2.17584e-17
2.18014e-17
2.23135e-17
2.23223e-17
2.23453e-17
2.23946e-17
2.28816e-17
2.289e-17
2.29131e-17
2.29685e-17
2.34309e-17
2.34389e-17
2.34623e-17
2.35236e-17
2.39623e-17
2.39701e-17
2.3994e-17
2.40611e-17
2.44775e-17
2.44851e-17
2.45096e-17
2.45826e-17
2.49784e-17
2.49861e-17
2.50113e-17
2.50902e-17
2.54683e-17
2.5476e-17
2.55021e-17
2.55871e-17
2.59507e-17
2.59587e-17
2.59858e-17
2.6077e-17
2.64302e-17
2.64383e-17
2.64667e-17
2.65644e-17
2.69105e-17
2.69189e-17
2.6949e-17
2.70533e-17
2.73953e-17
2.74038e-17
2.74361e-17
2.75473e-17
2.78883e-17
2.78966e-17
2.79317e-17
2.80503e-17
2.8394e-17
2.8402e-17
2.84403e-17
2.85666e-17
2.8917e-17
2.89246e-17
2.89661e-17
2.91008e-17
2.94607e-17
2.94682e-17
2.95121e-17
2.96561e-17
3.00261e-17
3.00338e-17
3.00792e-17
3.02335e-17
3.06121e-17
3.06202e-17
3.06665e-17
3.08319e-17
3.12165e-17
3.12249e-17
3.1272e-17
3.1449e-17
3.18366e-17
3.18447e-17
3.18938e-17
3.20825e-17
3.24704e-17
3.24775e-17
3.25302e-17
3.27304e-17
3.31168e-17
3.31227e-17
3.31797e-17
3.3391e-17
3.37757e-17
3.37806e-17
3.38413e-17
3.40639e-17
3.44475e-17
3.44514e-17
3.45155e-17
3.47487e-17
3.51327e-17
3.51365e-17
3.52025e-17
3.54463e-17
3.58315e-17
3.58387e-17
3.59021e-17
3.61577e-17
3.65434e-17
3.65604e-17
3.66146e-17
3.68847e-17
3.72652e-17
3.73011e-17
3.73408e-17
3.7629e-17
3.7988e-17
3.80579e-17
3.80814e-17
3.8393e-17
3.87498e-17
3.88193e-17
3.88419e-17
3.91779e-17
3.95329e-17
3.96045e-17
3.96274e-17
3.99826e-17
4.03393e-17
4.04144e-17
4.04364e-17
4.08101e-17
4.11724e-17
4.12497e-17
4.12696e-17
4.16632e-17
4.20306e-17
4.2113e-17
4.213e-17
4.25428e-17
4.29145e-17
4.30063e-17
4.302e-17
4.34506e-17
4.38258e-17
4.39315e-17
4.39414e-17
4.43882e-17
4.47691e-17
4.48904e-17
4.48962e-17
4.53576e-17
4.57521e-17
4.58832e-17
4.58854e-17
4.63609e-17
4.67779e-17
4.69106e-17
4.69124e-17
4.73979e-17
4.78474e-17
4.79722e-17
4.79819e-17
4.84672e-17
4.89623e-17
4.90633e-17
4.90971e-17
4.95681e-17
5.0147e-17
5.01602e-17
5.02507e-17
5.07059e-17
5.13099e-17
5.12771e-17
5.14694e-17
5.18736e-17
5.25075e-17
5.24772e-17
5.26626e-17
5.30955e-17
5.37411e-17
5.37332e-17
5.38764e-17
5.43581e-17
5.50054e-17
5.49929e-17
5.51834e-17
5.5639e-17
5.62916e-17
5.63735e-17
5.64642e-17
5.6964e-17
5.76231e-17
5.76627e-17
5.78077e-17
5.83322e-17
5.89747e-17
5.91107e-17
5.91096e-17
5.97453e-17
6.02644e-17
6.05298e-17
6.04556e-17
6.11806e-17
6.16546e-17
6.19337e-17
6.18666e-17
6.26133e-17
6.30627e-17
6.33438e-17
6.32824e-17
6.40541e-17
6.44832e-17
6.47431e-17
6.4705e-17
6.54887e-17
6.59194e-17
6.6103e-17
6.6169e-17
6.68909e-17
6.74054e-17
6.73524e-17
6.7678e-17
6.82461e-17
6.87122e-17
6.86866e-17
6.90053e-17
6.959e-17
6.99014e-17
6.99828e-17
7.01904e-17
7.08862e-17
7.09215e-17
7.12859e-17
7.11946e-17
7.2097e-17
7.19273e-17
7.22944e-17
7.22037e-17
7.31241e-17
7.27813e-17
7.31147e-17
7.30377e-17
7.39659e-17
7.3489e-17
7.36945e-17
7.36527e-17
7.45735e-17
)
;

boundaryField
{
    inlet
    {
        type            cyclic;
    }
    outlet
    {
        type            cyclic;
    }
    fixedWalls-bottom
    {
        type            nutkWallFunction;
        Cmu             0.09;
        kappa           0.41;
        E               9.8;
        value           uniform 0;
    }
    fixedWalls-top
    {
        type            symmetry;
    }
    frontAndBack
    {
        type            empty;
    }
}


// ************************************************************************* //
