/*--------------------------------*- C++ -*----------------------------------*\
  =========                 |
  \\      /  F ield         | OpenFOAM: The Open Source CFD Toolbox
   \\    /   O peration     | Website:  https://openfoam.org
    \\  /    A nd           | Version:  10
     \\/     M anipulation  |
\*---------------------------------------------------------------------------*/
FoamFile
{
    format      ascii;
    class       volVectorField;
    location    "2500";
    object      U;
}
// * * * * * * * * * * * * * * * * * * * * * * * * * * * * * * * * * * * * * //

dimensions      [0 1 -1 0 0 0 0];

internalField   nonuniform List<vector> 
400
(
(0.00692816 2.37963e-16 0)
(0.00692816 1.74068e-16 0)
(0.00692816 3.50361e-18 0)
(0.00692816 -1.74326e-16 0)
(0.0208179 1.50708e-15 0)
(0.0208179 3.13365e-15 0)
(0.0208179 -1.01644e-15 0)
(0.0208179 -3.13449e-15 0)
(0.0348373 3.70966e-15 0)
(0.0348373 9.22829e-15 0)
(0.0348373 -3.2175e-15 0)
(0.0348373 -9.22998e-15 0)
(0.0489863 7.32765e-15 0)
(0.0489863 1.87742e-14 0)
(0.0489863 -6.86499e-15 0)
(0.0489863 -1.87768e-14 0)
(0.0632649 1.2429e-14 0)
(0.0632649 3.17737e-14 0)
(0.0632649 -1.19718e-14 0)
(0.0632649 -3.17771e-14 0)
(0.0776727 1.89887e-14 0)
(0.0776727 4.82545e-14 0)
(0.0776727 -1.85294e-14 0)
(0.0776727 -4.82587e-14 0)
(0.0922095 2.69466e-14 0)
(0.0922095 6.8237e-14 0)
(0.0922095 -2.64861e-14 0)
(0.0922095 -6.8242e-14 0)
(0.106875 3.61932e-14 0)
(0.106875 9.1703e-14 0)
(0.106875 -3.57332e-14 0)
(0.106875 -9.17088e-14 0)
(0.121669 4.65637e-14 0)
(0.121669 1.18589e-13 0)
(0.121669 -4.61045e-14 0)
(0.121669 -1.18596e-13 0)
(0.136591 5.78408e-14 0)
(0.136591 1.48786e-13 0)
(0.136591 -5.73829e-14 0)
(0.136591 -1.48794e-13 0)
(0.15164 6.97624e-14 0)
(0.15164 1.8214e-13 0)
(0.15164 -6.93059e-14 0)
(0.15164 -1.82148e-13 0)
(0.166816 8.20279e-14 0)
(0.166816 2.18448e-13 0)
(0.166816 -8.15728e-14 0)
(0.166816 -2.18457e-13 0)
(0.182117 9.43066e-14 0)
(0.182117 2.57461e-13 0)
(0.182117 -9.38534e-14 0)
(0.182117 -2.5747e-13 0)
(0.197545 1.06249e-13 0)
(0.197545 2.98878e-13 0)
(0.197545 -1.05798e-13 0)
(0.197545 -2.98888e-13 0)
(0.213097 1.17495e-13 0)
(0.213097 3.42354e-13 0)
(0.213097 -1.17046e-13 0)
(0.213097 -3.42365e-13 0)
(0.228772 1.27689e-13 0)
(0.228772 3.875e-13 0)
(0.228772 -1.27242e-13 0)
(0.228772 -3.87512e-13 0)
(0.24457 1.36486e-13 0)
(0.24457 4.33884e-13 0)
(0.24457 -1.36042e-13 0)
(0.24457 -4.33897e-13 0)
(0.26049 1.43565e-13 0)
(0.26049 4.81041e-13 0)
(0.26049 -1.43125e-13 0)
(0.26049 -4.81054e-13 0)
(0.27653 1.48646e-13 0)
(0.27653 5.28471e-13 0)
(0.27653 -1.48209e-13 0)
(0.27653 -5.28484e-13 0)
(0.292689 1.51488e-13 0)
(0.292689 5.75656e-13 0)
(0.292689 -1.51055e-13 0)
(0.292689 -5.7567e-13 0)
(0.308966 1.51912e-13 0)
(0.308966 6.22065e-13 0)
(0.308966 -1.51482e-13 0)
(0.308966 -6.2208e-13 0)
(0.325359 1.49795e-13 0)
(0.325359 6.67164e-13 0)
(0.325359 -1.49369e-13 0)
(0.325359 -6.67179e-13 0)
(0.341867 1.45082e-13 0)
(0.341867 7.10424e-13 0)
(0.341867 -1.44661e-13 0)
(0.341867 -7.10439e-13 0)
(0.358487 1.37793e-13 0)
(0.358487 7.51335e-13 0)
(0.358487 -1.37376e-13 0)
(0.358487 -7.51351e-13 0)
(0.375219 1.28013e-13 0)
(0.375219 7.89416e-13 0)
(0.375219 -1.27599e-13 0)
(0.375219 -7.89433e-13 0)
(0.39206 1.159e-13 0)
(0.39206 8.24227e-13 0)
(0.39206 -1.1549e-13 0)
(0.39206 -8.24245e-13 0)
(0.409008 1.0168e-13 0)
(0.409008 8.55382e-13 0)
(0.409008 -1.01272e-13 0)
(0.409008 -8.55403e-13 0)
(0.426061 8.56354e-14 0)
(0.426061 8.82561e-13 0)
(0.426061 -8.52305e-14 0)
(0.426061 -8.82583e-13 0)
(0.443217 6.8103e-14 0)
(0.443217 9.0551e-13 0)
(0.443217 -6.77022e-14 0)
(0.443217 -9.05532e-13 0)
(0.460473 4.94597e-14 0)
(0.460473 9.2405e-13 0)
(0.460473 -4.90635e-14 0)
(0.460473 -9.24072e-13 0)
(0.477827 3.01127e-14 0)
(0.477827 9.38086e-13 0)
(0.477827 -2.97205e-14 0)
(0.477827 -9.38109e-13 0)
(0.495275 1.04824e-14 0)
(0.495275 9.47608e-13 0)
(0.495275 -1.0094e-14 0)
(0.495275 -9.47631e-13 0)
(0.512815 -9.00603e-15 0)
(0.512815 9.52688e-13 0)
(0.512815 9.39121e-15 0)
(0.512815 -9.52713e-13 0)
(0.530444 -2.79407e-14 0)
(0.530444 9.53479e-13 0)
(0.530444 2.83216e-14 0)
(0.530444 -9.53505e-13 0)
(0.548159 -4.59314e-14 0)
(0.548159 9.50205e-13 0)
(0.548159 4.63067e-14 0)
(0.548159 -9.50231e-13 0)
(0.565955 -6.2623e-14 0)
(0.565955 9.43165e-13 0)
(0.565955 6.29924e-14 0)
(0.565955 -9.4319e-13 0)
(0.583831 -7.77108e-14 0)
(0.583831 9.32709e-13 0)
(0.583831 7.8075e-14 0)
(0.583831 -9.32733e-13 0)
(0.601781 -9.0945e-14 0)
(0.601781 9.19227e-13 0)
(0.601781 9.13072e-14 0)
(0.601781 -9.19254e-13 0)
(0.619802 -1.02137e-13 0)
(0.619802 9.03151e-13 0)
(0.619802 1.02498e-13 0)
(0.619802 -9.03182e-13 0)
(0.63789 -1.11165e-13 0)
(0.63789 8.8493e-13 0)
(0.63789 1.1152e-13 0)
(0.63789 -8.84962e-13 0)
(0.656041 -1.17972e-13 0)
(0.656041 8.65018e-13 0)
(0.656041 1.18322e-13 0)
(0.656041 -8.6505e-13 0)
(0.674249 -1.22566e-13 0)
(0.674249 8.43856e-13 0)
(0.674249 1.22912e-13 0)
(0.674249 -8.43889e-13 0)
(0.69251 -1.25018e-13 0)
(0.69251 8.21865e-13 0)
(0.69251 1.2536e-13 0)
(0.69251 -8.219e-13 0)
(0.710819 -1.25454e-13 0)
(0.710819 7.99437e-13 0)
(0.710819 1.25794e-13 0)
(0.710819 -7.99473e-13 0)
(0.729171 -1.24047e-13 0)
(0.729171 7.76917e-13 0)
(0.729171 1.24384e-13 0)
(0.729171 -7.76957e-13 0)
(0.747561 -1.21005e-13 0)
(0.747561 7.54607e-13 0)
(0.747561 1.21337e-13 0)
(0.747561 -7.54648e-13 0)
(0.765982 -1.16563e-13 0)
(0.765982 7.32753e-13 0)
(0.765982 1.16889e-13 0)
(0.765982 -7.32794e-13 0)
(0.784429 -1.10969e-13 0)
(0.784429 7.11543e-13 0)
(0.784429 1.1129e-13 0)
(0.784429 -7.11584e-13 0)
(0.802895 -1.04478e-13 0)
(0.802895 6.91119e-13 0)
(0.802895 1.04793e-13 0)
(0.802895 -6.91159e-13 0)
(0.821374 -9.73398e-14 0)
(0.821374 6.71564e-13 0)
(0.821374 9.7649e-14 0)
(0.821374 -6.71604e-13 0)
(0.83986 -8.97922e-14 0)
(0.83986 6.52915e-13 0)
(0.83986 9.00951e-14 0)
(0.83986 -6.52956e-13 0)
(0.858344 -8.20465e-14 0)
(0.858344 6.35167e-13 0)
(0.858344 8.23452e-14 0)
(0.858344 -6.35209e-13 0)
(0.87682 -7.42958e-14 0)
(0.87682 6.18286e-13 0)
(0.87682 7.45913e-14 0)
(0.87682 -6.18332e-13 0)
(0.89528 -6.67012e-14 0)
(0.89528 6.02209e-13 0)
(0.89528 6.69905e-14 0)
(0.89528 -6.02258e-13 0)
(0.913715 -5.9384e-14 0)
(0.913715 5.86857e-13 0)
(0.913715 5.96662e-14 0)
(0.913715 -5.86904e-13 0)
(0.932119 -5.24439e-14 0)
(0.932119 5.72134e-13 0)
(0.932119 5.27191e-14 0)
(0.932119 -5.72178e-13 0)
(0.950481 -4.59453e-14 0)
(0.950481 5.57931e-13 0)
(0.950481 4.62134e-14 0)
(0.950481 -5.57974e-13 0)
(0.968793 -3.99275e-14 0)
(0.968793 5.44148e-13 0)
(0.968793 4.01869e-14 0)
(0.968793 -5.44187e-13 0)
(0.987045 -3.44073e-14 0)
(0.987045 5.30693e-13 0)
(0.987045 3.46593e-14 0)
(0.987045 -5.30728e-13 0)
(1.00523 -2.93795e-14 0)
(1.00523 5.17482e-13 0)
(1.00523 2.96287e-14 0)
(1.00523 -5.17518e-13 0)
(1.02333 -2.48247e-14 0)
(1.02333 5.04444e-13 0)
(1.02333 2.50705e-14 0)
(1.02333 -5.04481e-13 0)
(1.04134 -2.07107e-14 0)
(1.04134 4.9152e-13 0)
(1.04134 2.09521e-14 0)
(1.04134 -4.91557e-13 0)
(1.05926 -1.69998e-14 0)
(1.05926 4.7867e-13 0)
(1.05926 1.72385e-14 0)
(1.05926 -4.78711e-13 0)
(1.07705 -1.366e-14 0)
(1.07705 4.65861e-13 0)
(1.07705 1.3895e-14 0)
(1.07705 -4.65905e-13 0)
(1.09473 -1.0646e-14 0)
(1.09473 4.53071e-13 0)
(1.09473 1.08752e-14 0)
(1.09473 -4.53114e-13 0)
(1.11227 -7.92384e-15 0)
(1.11227 4.40287e-13 0)
(1.11227 8.14386e-15 0)
(1.11227 -4.40328e-13 0)
(1.12965 -5.45455e-15 0)
(1.12965 4.27508e-13 0)
(1.12965 5.66579e-15 0)
(1.12965 -4.27548e-13 0)
(1.14688 -3.21224e-15 0)
(1.14688 4.1473e-13 0)
(1.14688 3.4155e-15 0)
(1.14688 -4.14768e-13 0)
(1.16392 -1.1813e-15 0)
(1.16392 4.0195e-13 0)
(1.16392 1.37397e-15 0)
(1.16392 -4.01983e-13 0)
(1.18078 6.58193e-16 0)
(1.18078 3.89176e-13 0)
(1.18078 -4.78374e-16 0)
(1.18078 -3.89203e-13 0)
(1.19743 2.33235e-15 0)
(1.19743 3.76411e-13 0)
(1.19743 -2.15986e-15 0)
(1.19743 -3.76437e-13 0)
(1.21386 3.85254e-15 0)
(1.21386 3.6366e-13 0)
(1.21386 -3.68596e-15 0)
(1.21386 -3.63687e-13 0)
(1.23005 5.22215e-15 0)
(1.23005 3.50929e-13 0)
(1.23005 -5.06214e-15 0)
(1.23005 -3.50956e-13 0)
(1.24598 6.46131e-15 0)
(1.24598 3.38227e-13 0)
(1.24598 -6.30276e-15 0)
(1.24598 -3.38254e-13 0)
(1.26165 7.57178e-15 0)
(1.26165 3.25557e-13 0)
(1.26165 -7.41123e-15 0)
(1.26165 -3.25586e-13 0)
(1.27702 8.55231e-15 0)
(1.27702 3.12916e-13 0)
(1.27702 -8.39686e-15 0)
(1.27702 -3.12947e-13 0)
(1.29209 9.40802e-15 0)
(1.29209 3.00305e-13 0)
(1.29209 -9.25864e-15 0)
(1.29209 -3.00338e-13 0)
(1.30683 1.01432e-14 0)
(1.30683 2.87724e-13 0)
(1.30683 -9.9945e-15 0)
(1.30683 -2.87762e-13 0)
(1.32122 1.0753e-14 0)
(1.32122 2.7518e-13 0)
(1.32122 -1.0611e-14 0)
(1.32122 -2.75214e-13 0)
(1.33524 1.12371e-14 0)
(1.33524 2.62664e-13 0)
(1.33524 -1.11043e-14 0)
(1.33524 -2.62696e-13 0)
(1.34888 1.15966e-14 0)
(1.34888 2.50162e-13 0)
(1.34888 -1.1472e-14 0)
(1.34888 -2.50194e-13 0)
(1.3621 1.18476e-14 0)
(1.3621 2.37671e-13 0)
(1.3621 -1.17305e-14 0)
(1.3621 -2.37705e-13 0)
(1.37489 1.2002e-14 0)
(1.37489 2.25197e-13 0)
(1.37489 -1.18876e-14 0)
(1.37489 -2.25232e-13 0)
(1.38722 1.20569e-14 0)
(1.38722 2.12739e-13 0)
(1.38722 -1.19456e-14 0)
(1.38722 -2.12772e-13 0)
(1.39907 1.20088e-14 0)
(1.39907 2.0028e-13 0)
(1.39907 -1.18999e-14 0)
(1.39907 -2.00311e-13 0)
(1.41041 1.18533e-14 0)
(1.41041 1.87811e-13 0)
(1.41041 -1.1746e-14 0)
(1.41041 -1.87847e-13 0)
(1.42122 1.15967e-14 0)
(1.42122 1.75338e-13 0)
(1.42122 -1.14976e-14 0)
(1.42122 -1.75372e-13 0)
(1.43147 1.12504e-14 0)
(1.43147 1.62836e-13 0)
(1.43147 -1.11588e-14 0)
(1.43147 -1.62865e-13 0)
(1.44112 1.08122e-14 0)
(1.44112 1.50299e-13 0)
(1.44112 -1.07248e-14 0)
(1.44112 -1.5033e-13 0)
(1.45016 1.02977e-14 0)
(1.45016 1.37732e-13 0)
(1.45016 -1.02139e-14 0)
(1.45016 -1.37765e-13 0)
(1.45855 9.70253e-15 0)
(1.45855 1.25131e-13 0)
(1.45855 -9.62008e-15 0)
(1.45855 -1.2517e-13 0)
(1.46626 9.01247e-15 0)
(1.46626 1.1249e-13 0)
(1.46626 -8.94115e-15 0)
(1.46626 -1.12525e-13 0)
(1.47326 8.23938e-15 0)
(1.47326 9.97961e-14 0)
(1.47326 -8.18451e-15 0)
(1.47326 -9.98198e-14 0)
(1.47951 7.39251e-15 0)
(1.47951 8.70138e-14 0)
(1.47951 -7.35137e-15 0)
(1.47951 -8.70307e-14 0)
(1.48498 6.47238e-15 0)
(1.48498 7.41339e-14 0)
(1.48498 -6.44357e-15 0)
(1.48498 -7.41423e-14 0)
(1.48964 5.48417e-15 0)
(1.48964 6.1129e-14 0)
(1.48964 -5.46801e-15 0)
(1.48964 -6.11283e-14 0)
(1.49344 4.41379e-15 0)
(1.49344 4.79451e-14 0)
(1.49344 -4.40793e-15 0)
(1.49344 -4.79434e-14 0)
(1.49635 3.23474e-15 0)
(1.49635 3.45227e-14 0)
(1.49635 -3.23763e-15 0)
(1.49635 -3.45171e-14 0)
(1.49834 1.95388e-15 0)
(1.49834 2.08631e-14 0)
(1.49834 -1.9698e-15 0)
(1.49834 -2.08453e-14 0)
(1.49935 7.63807e-16 0)
(1.49935 6.96617e-15 0)
(1.49935 -7.6326e-16 0)
(1.49935 -6.96723e-15 0)
)
;

boundaryField
{
    inlet
    {
        type            cyclic;
    }
    outlet
    {
        type            cyclic;
    }
    fixedWalls-bottom
    {
        type            noSlip;
    }
    fixedWalls-top
    {
        type            symmetry;
    }
    frontAndBack
    {
        type            empty;
    }
}


// ************************************************************************* //
