/*--------------------------------*- C++ -*----------------------------------*\
  =========                 |
  \\      /  F ield         | OpenFOAM: The Open Source CFD Toolbox
   \\    /   O peration     | Website:  https://openfoam.org
    \\  /    A nd           | Version:  10
     \\/     M anipulation  |
\*---------------------------------------------------------------------------*/
FoamFile
{
    format      ascii;
    class       volScalarField;
    location    "4300";
    object      k;
}
// * * * * * * * * * * * * * * * * * * * * * * * * * * * * * * * * * * * * * //

dimensions      [0 2 -2 0 0 0 0];

internalField   nonuniform List<scalar> 
400
(
1.23284e-06
1.23237e-06
1.23229e-06
1.23241e-06
3.69687e-05
3.69546e-05
3.69523e-05
3.69558e-05
0.000259401
0.000259302
0.000259287
0.000259311
0.000893379
0.000893044
0.000892998
0.000893079
0.00198938
0.00198869
0.00198862
0.00198879
0.00327067
0.00326973
0.00326968
0.00326995
0.00443748
0.00443648
0.00443649
0.00443684
0.0053842
0.00538328
0.00538336
0.00538379
0.00613023
0.00612939
0.00612957
0.00613008
0.00671039
0.00670961
0.0067099
0.00671048
0.00715945
0.00715873
0.00715912
0.00715974
0.00750727
0.00750661
0.00750709
0.00750773
0.00777745
0.00777684
0.00777738
0.00777803
0.00798785
0.00798729
0.00798787
0.0079885
0.00815184
0.00815133
0.00815192
0.00815252
0.00827939
0.00827892
0.00827951
0.00828007
0.00837797
0.00837754
0.0083781
0.00837861
0.00845321
0.00845283
0.00845335
0.00845379
0.0085094
0.00850906
0.00850954
0.0085099
0.00854983
0.00854953
0.00854996
0.00855024
0.00857705
0.00857679
0.00857718
0.00857736
0.00859305
0.00859285
0.00859319
0.00859329
0.00859943
0.00859928
0.00859958
0.00859959
0.00859745
0.00859735
0.00859761
0.00859754
0.00858812
0.00858807
0.00858829
0.00858816
0.00857228
0.00857227
0.00857246
0.00857225
0.0085506
0.00855063
0.00855079
0.00855052
0.00852364
0.0085237
0.00852384
0.00852351
0.00849186
0.00849195
0.00849207
0.0084917
0.00845566
0.00845578
0.00845589
0.00845548
0.00841538
0.00841552
0.00841562
0.00841518
0.00837129
0.00837145
0.00837154
0.00837107
0.00832364
0.00832382
0.0083239
0.00832342
0.00827264
0.00827283
0.00827291
0.00827241
0.00821847
0.00821867
0.00821874
0.00821825
0.0081613
0.0081615
0.00816157
0.00816107
0.00810125
0.00810147
0.00810153
0.00810104
0.00803846
0.00803868
0.00803874
0.00803826
0.00797305
0.00797327
0.00797332
0.00797286
0.00790511
0.00790534
0.00790539
0.00790494
0.00783477
0.007835
0.00783504
0.00783462
0.00776214
0.00776237
0.0077624
0.007762
0.00768735
0.00768757
0.00768759
0.00768722
0.00761054
0.00761076
0.00761078
0.00761043
0.00753192
0.00753212
0.00753213
0.00753181
0.00745169
0.00745187
0.00745188
0.00745159
0.0073701
0.00737026
0.00737027
0.00737001
0.00728742
0.00728756
0.00728757
0.00728735
0.00720389
0.00720401
0.00720402
0.00720384
0.00711967
0.00711978
0.0071198
0.00711965
0.00703473
0.00703482
0.00703484
0.00703471
0.00694885
0.00694892
0.00694893
0.00694882
0.00686188
0.00686195
0.00686195
0.00686185
0.00677383
0.00677389
0.00677387
0.0067738
0.00668467
0.00668473
0.0066847
0.00668465
0.00659441
0.00659446
0.00659442
0.00659438
0.00650304
0.00650308
0.00650304
0.00650301
0.00641056
0.00641059
0.00641054
0.00641053
0.00631697
0.006317
0.00631694
0.00631694
0.00622226
0.0062223
0.00622223
0.00622223
0.00612645
0.00612648
0.00612641
0.00612642
0.00602953
0.00602956
0.00602949
0.00602949
0.00593151
0.00593154
0.00593146
0.00593147
0.0058324
0.00583242
0.00583235
0.00583236
0.0057322
0.00573223
0.00573216
0.00573216
0.00563095
0.00563096
0.0056309
0.0056309
0.00552864
0.00552865
0.00552859
0.0055286
0.00542531
0.00542532
0.00542526
0.00542527
0.00532098
0.00532098
0.00532094
0.00532095
0.00521569
0.00521569
0.00521565
0.00521566
0.00510947
0.00510947
0.00510944
0.00510946
0.00500239
0.00500239
0.00500236
0.00500238
0.00489449
0.00489449
0.00489446
0.00489449
0.00478584
0.00478585
0.00478582
0.00478585
0.00467654
0.00467654
0.00467651
0.00467656
0.00456667
0.00456667
0.00456664
0.00456669
0.00445634
0.00445633
0.00445631
0.00445637
0.00434569
0.00434567
0.00434565
0.00434571
0.00423486
0.00423483
0.00423481
0.00423488
0.00412402
0.00412397
0.00412397
0.00412403
0.00401337
0.00401331
0.00401331
0.00401338
0.00390315
0.00390309
0.00390309
0.00390317
0.00379363
0.00379358
0.00379357
0.00379365
0.00368513
0.00368508
0.00368507
0.00368516
0.00357801
0.00357797
0.00357795
0.00357805
0.0034727
0.00347266
0.00347264
0.00347274
0.00336965
0.00336962
0.0033696
0.0033697
0.0032694
0.00326938
0.00326935
0.00326947
0.00317254
0.00317252
0.00317249
0.00317261
0.0030797
0.00307968
0.00307966
0.00307978
0.00299157
0.00299156
0.00299153
0.00299166
0.00290889
0.00290887
0.00290884
0.00290898
0.00283242
0.00283239
0.00283237
0.0028325
0.00276294
0.00276292
0.00276289
0.00276302
0.00270126
0.00270123
0.0027012
0.00270134
0.00264817
0.00264811
0.0026481
0.00264823
0.00260441
0.00260433
0.00260433
0.00260447
0.0025707
0.00257062
0.00257061
0.00257075
0.00254768
0.00254761
0.0025476
0.00254774
0.00253594
0.00253588
0.00253585
0.002536
)
;

boundaryField
{
    inlet
    {
        type            cyclic;
    }
    outlet
    {
        type            cyclic;
    }
    fixedWalls-bottom
    {
        type            kqRWallFunction;
        value           nonuniform List<scalar> 4(1.23284e-06 1.23237e-06 1.23229e-06 1.23241e-06);
    }
    fixedWalls-top
    {
        type            symmetry;
    }
    frontAndBack
    {
        type            empty;
    }
}


// ************************************************************************* //
