/*--------------------------------*- C++ -*----------------------------------*\
  =========                 |
  \\      /  F ield         | OpenFOAM: The Open Source CFD Toolbox
   \\    /   O peration     | Website:  https://openfoam.org
    \\  /    A nd           | Version:  10
     \\/     M anipulation  |
\*---------------------------------------------------------------------------*/
FoamFile
{
    format      ascii;
    class       volScalarField;
    location    "4300";
    object      omega;
}
// * * * * * * * * * * * * * * * * * * * * * * * * * * * * * * * * * * * * * //

dimensions      [0 0 -1 0 0 0 0];

internalField   nonuniform List<scalar> 
400
(
2904.36
2904.36
2904.36
2904.36
499.166
499.166
499.166
499.166
173.343
173.344
173.345
173.345
88.7275
88.7311
88.7314
88.7313
57.1492
57.155
57.1558
57.1555
41.696
41.7025
41.7027
41.7023
32.5338
32.539
32.539
32.5389
26.4374
26.4411
26.4408
26.4408
22.0774
22.0795
22.0786
22.0787
18.811
18.8119
18.8105
18.8104
16.2849
16.285
16.2829
16.2829
14.2832
14.2827
14.2802
14.2801
12.6648
12.664
12.6611
12.6611
11.3334
11.3325
11.3295
11.3294
10.2213
10.2204
10.2173
10.2173
9.2796
9.27869
9.2758
9.27581
8.47247
8.47166
8.46904
8.46909
7.77323
7.77254
7.77026
7.77038
7.16168
7.16113
7.1592
7.15945
6.62233
6.62192
6.62032
6.62079
6.14323
6.14288
6.14155
6.1422
5.71488
5.71456
5.71347
5.71426
5.32979
5.32945
5.32861
5.3295
4.98194
4.98153
4.98098
4.98193
4.66638
4.66602
4.66571
4.66675
4.37919
4.37895
4.37881
4.37997
4.11714
4.11705
4.117
4.11828
3.8775
3.87749
3.87753
3.87894
3.65795
3.65795
3.65808
3.65959
3.45649
3.45642
3.45665
3.45823
3.27129
3.2713
3.27146
3.27314
3.10086
3.10089
3.10105
3.10279
2.94384
2.94391
2.94408
2.94586
2.79904
2.79917
2.79934
2.80114
2.66535
2.66561
2.66576
2.66756
2.54195
2.54221
2.54237
2.54415
2.42788
2.42812
2.42829
2.43003
2.32236
2.32254
2.32273
2.32441
2.22467
2.22473
2.22494
2.22655
2.13401
2.13404
2.13426
2.13579
2.04983
2.04985
2.05008
2.05151
1.97159
1.97159
1.97183
1.97317
1.89877
1.89877
1.89901
1.90025
1.83092
1.83091
1.83115
1.83229
1.76761
1.7676
1.76783
1.76887
1.70844
1.70844
1.70865
1.70959
1.65307
1.65308
1.65327
1.6541
1.60118
1.60119
1.60136
1.60207
1.55245
1.55247
1.55263
1.55322
1.50664
1.50667
1.50683
1.50727
1.46351
1.46355
1.46373
1.46399
1.42286
1.4229
1.42313
1.42317
1.38451
1.38454
1.38479
1.38471
1.34831
1.34833
1.3486
1.34845
1.31405
1.31407
1.31434
1.31415
1.28149
1.28152
1.28178
1.28158
1.25048
1.25051
1.25077
1.25057
1.22092
1.22095
1.22121
1.22102
1.19272
1.19275
1.193
1.19283
1.16581
1.16583
1.16608
1.16592
1.14009
1.14012
1.14036
1.14021
1.11548
1.11552
1.11573
1.11559
1.09188
1.09192
1.09212
1.09198
1.06922
1.06928
1.06944
1.06931
1.04747
1.04754
1.04766
1.04752
1.02656
1.02663
1.02672
1.02658
1.00645
1.00651
1.00657
1.00642
0.987077
0.987128
0.987149
0.986995
0.968391
0.968417
0.968423
0.96826
0.950342
0.950327
0.950343
0.950164
0.932883
0.932841
0.932854
0.932661
0.915969
0.915908
0.915919
0.915711
0.899571
0.899497
0.899509
0.899273
0.883654
0.883577
0.883587
0.883317
0.868189
0.868113
0.868107
0.867821
0.853142
0.853086
0.853047
0.852759
0.838471
0.838494
0.838382
0.838105
0.824217
0.824229
0.824137
0.82383
0.81034
0.810384
0.810223
0.809923
0.796816
0.796848
0.796686
0.796351
0.783625
0.783615
0.783486
0.783099
0.770747
0.770603
0.770587
0.770158
0.758147
0.757961
0.757967
0.757491
0.745814
0.745598
0.745608
0.745093
0.733737
0.733493
0.733503
0.732949
0.721906
0.721637
0.721645
0.721051
0.71032
0.710025
0.710031
0.709396
0.69898
0.698663
0.698666
0.697992
0.687902
0.687564
0.687566
0.686853
0.677111
0.676757
0.676759
0.67601
0.666649
0.666287
0.666288
0.665508
0.656577
0.656218
0.656219
0.655412
0.646976
0.646641
0.646633
0.645805
0.63795
0.637675
0.637633
0.636798
0.629629
0.629487
0.629342
0.628521
0.622182
0.622318
0.621904
0.62113
0.615861
0.615965
0.615606
0.614802
0.610854
0.610824
0.610644
0.6097
0.607423
0.606998
0.607144
0.606028
0.605465
0.604967
0.605092
0.603995
)
;

boundaryField
{
    inlet
    {
        type            cyclic;
    }
    outlet
    {
        type            cyclic;
    }
    fixedWalls-bottom
    {
        beta1           0.075;
        blended         0;
        type            omegaWallFunction;
        value           uniform 2904.36;
    }
    fixedWalls-top
    {
        type            symmetry;
    }
    frontAndBack
    {
        type            empty;
    }
}


// ************************************************************************* //
