/*--------------------------------*- C++ -*----------------------------------*\
  =========                 |
  \\      /  F ield         | OpenFOAM: The Open Source CFD Toolbox
   \\    /   O peration     | Website:  https://openfoam.org
    \\  /    A nd           | Version:  10
     \\/     M anipulation  |
\*---------------------------------------------------------------------------*/
FoamFile
{
    format      ascii;
    class       volScalarField;
    location    "4300";
    object      p;
}
// * * * * * * * * * * * * * * * * * * * * * * * * * * * * * * * * * * * * * //

dimensions      [0 2 -2 0 0 0 0];

internalField   nonuniform List<scalar> 
400
(
2.82069e-13
-6.14467e-07
-1.11909e-06
-5.04523e-07
-1.13559e-10
-6.13748e-07
-1.11897e-06
-5.05242e-07
-2.51495e-10
-6.1289e-07
-1.11883e-06
-5.06101e-07
-4.81129e-10
-6.12246e-07
-1.1186e-06
-5.06744e-07
-9.53375e-10
-6.12563e-07
-1.11813e-06
-5.06427e-07
-1.88521e-09
-6.14622e-07
-1.1172e-06
-5.04369e-07
-3.37273e-09
-6.1823e-07
-1.11571e-06
-5.0076e-07
-5.22611e-09
-6.21732e-07
-1.11386e-06
-4.97259e-07
-7.55811e-09
-6.24124e-07
-1.11153e-06
-4.94867e-07
-1.08323e-08
-6.25803e-07
-1.10825e-06
-4.93188e-07
-1.52989e-08
-6.27004e-07
-1.10378e-06
-4.91987e-07
-2.09786e-08
-6.27805e-07
-1.0981e-06
-4.91186e-07
-2.77318e-08
-6.2828e-07
-1.09135e-06
-4.90711e-07
-3.53141e-08
-6.28543e-07
-1.08377e-06
-4.90448e-07
-4.34277e-08
-6.28713e-07
-1.07566e-06
-4.90278e-07
-5.17594e-08
-6.28877e-07
-1.06732e-06
-4.90114e-07
-6.00148e-08
-6.29074e-07
-1.05907e-06
-4.89918e-07
-6.79467e-08
-6.29285e-07
-1.05114e-06
-4.89706e-07
-7.5375e-08
-6.29453e-07
-1.04371e-06
-4.89539e-07
-8.21982e-08
-6.29485e-07
-1.03688e-06
-4.89507e-07
-8.83927e-08
-6.29282e-07
-1.03069e-06
-4.89709e-07
-9.39933e-08
-6.28766e-07
-1.02509e-06
-4.90226e-07
-9.90615e-08
-6.27897e-07
-1.02002e-06
-4.91095e-07
-1.03661e-07
-6.2669e-07
-1.01542e-06
-4.92302e-07
-1.07842e-07
-6.25206e-07
-1.01124e-06
-4.93787e-07
-1.11647e-07
-6.2351e-07
-1.00743e-06
-4.95483e-07
-1.15128e-07
-6.2165e-07
-1.00395e-06
-4.97343e-07
-1.18333e-07
-6.19642e-07
-1.00075e-06
-4.99351e-07
-1.21302e-07
-6.17488e-07
-9.9778e-07
-5.01505e-07
-1.24072e-07
-6.15192e-07
-9.95009e-07
-5.03801e-07
-1.26682e-07
-6.12767e-07
-9.92399e-07
-5.06227e-07
-1.29164e-07
-6.1024e-07
-9.89916e-07
-5.08754e-07
-1.31546e-07
-6.07647e-07
-9.87534e-07
-5.11347e-07
-1.3385e-07
-6.05024e-07
-9.8523e-07
-5.1397e-07
-1.36102e-07
-6.02391e-07
-9.82978e-07
-5.16603e-07
-1.38323e-07
-5.99741e-07
-9.80756e-07
-5.19253e-07
-1.4053e-07
-5.97048e-07
-9.78549e-07
-5.21946e-07
-1.42721e-07
-5.94279e-07
-9.76358e-07
-5.24715e-07
-1.4487e-07
-5.91421e-07
-9.74209e-07
-5.27574e-07
-1.46928e-07
-5.88509e-07
-9.72151e-07
-5.30486e-07
-1.48843e-07
-5.85648e-07
-9.70236e-07
-5.33347e-07
-1.50612e-07
-5.83012e-07
-9.68466e-07
-5.35983e-07
-1.52364e-07
-5.80819e-07
-9.66714e-07
-5.38176e-07
-1.54442e-07
-5.79245e-07
-9.64635e-07
-5.39751e-07
-1.57456e-07
-5.78269e-07
-9.61621e-07
-5.40727e-07
-1.62211e-07
-5.77457e-07
-9.56866e-07
-5.41539e-07
-1.6945e-07
-5.75799e-07
-9.49626e-07
-5.43197e-07
-1.79256e-07
-5.71875e-07
-9.39818e-07
-5.47121e-07
-1.89939e-07
-5.65005e-07
-9.29134e-07
-5.53992e-07
-1.96836e-07
-5.57641e-07
-9.22238e-07
-5.61355e-07
-1.94368e-07
-5.56061e-07
-9.2471e-07
-5.62934e-07
-1.87202e-07
-5.60902e-07
-9.31877e-07
-5.58093e-07
-1.83194e-07
-5.67514e-07
-9.35884e-07
-5.51483e-07
-1.82153e-07
-5.74496e-07
-9.36924e-07
-5.44501e-07
-1.82521e-07
-5.81854e-07
-9.36555e-07
-5.37144e-07
-1.834e-07
-5.89565e-07
-9.35676e-07
-5.29434e-07
-1.84313e-07
-5.97529e-07
-9.34763e-07
-5.2147e-07
-1.84951e-07
-6.0567e-07
-9.34123e-07
-5.13328e-07
-1.85148e-07
-6.13935e-07
-9.33926e-07
-5.05065e-07
-1.84885e-07
-6.22276e-07
-9.34188e-07
-4.96723e-07
-1.84296e-07
-6.3063e-07
-9.34776e-07
-4.8837e-07
-1.83652e-07
-6.38879e-07
-9.35419e-07
-4.80121e-07
-1.8332e-07
-6.46877e-07
-9.3575e-07
-4.72123e-07
-1.83717e-07
-6.54457e-07
-9.35352e-07
-4.64543e-07
-1.85243e-07
-6.61399e-07
-9.33826e-07
-4.57602e-07
-1.88197e-07
-6.67388e-07
-9.30872e-07
-4.51612e-07
-1.92721e-07
-6.72034e-07
-9.26348e-07
-4.46967e-07
-1.98714e-07
-6.75097e-07
-9.20356e-07
-4.43903e-07
-2.05801e-07
-6.76622e-07
-9.13269e-07
-4.42379e-07
-2.13423e-07
-6.76795e-07
-9.05647e-07
-4.42207e-07
-2.21384e-07
-6.75803e-07
-8.97686e-07
-4.43199e-07
-2.29872e-07
-6.73872e-07
-8.89198e-07
-4.45131e-07
-2.39162e-07
-6.7136e-07
-8.79908e-07
-4.47643e-07
-2.49615e-07
-6.68571e-07
-8.69455e-07
-4.50433e-07
-2.61298e-07
-6.65457e-07
-8.57771e-07
-4.53547e-07
-2.74257e-07
-6.61911e-07
-8.44812e-07
-4.57094e-07
-2.88903e-07
-6.58372e-07
-8.30166e-07
-4.60634e-07
-3.04842e-07
-6.55202e-07
-8.14227e-07
-4.63804e-07
-3.22104e-07
-6.51638e-07
-7.96964e-07
-4.67367e-07
-3.41074e-07
-6.47292e-07
-7.77995e-07
-4.71712e-07
-3.60706e-07
-6.42632e-07
-7.58362e-07
-4.76372e-07
-3.78945e-07
-6.37559e-07
-7.40122e-07
-4.81445e-07
-3.95859e-07
-6.31879e-07
-7.23208e-07
-4.87124e-07
-4.13272e-07
-6.25565e-07
-7.05795e-07
-4.93439e-07
-4.31619e-07
-6.18512e-07
-6.87448e-07
-5.00491e-07
-4.50824e-07
-6.10719e-07
-6.68243e-07
-5.08284e-07
-4.7075e-07
-6.0228e-07
-6.48317e-07
-5.16723e-07
-4.9123e-07
-5.93342e-07
-6.27836e-07
-5.25662e-07
-5.12036e-07
-5.84085e-07
-6.07029e-07
-5.34919e-07
-5.32872e-07
-5.74738e-07
-5.86192e-07
-5.44267e-07
-5.53393e-07
-5.65589e-07
-5.65671e-07
-5.53416e-07
-5.73232e-07
-5.56991e-07
-5.4583e-07
-5.62014e-07
-5.92064e-07
-5.49315e-07
-5.26998e-07
-5.69689e-07
-6.09794e-07
-5.4285e-07
-5.09268e-07
-5.76152e-07
-6.269e-07
-5.37682e-07
-4.92162e-07
-5.81318e-07
-6.44174e-07
-5.33658e-07
-4.74887e-07
-5.85338e-07
-6.59916e-07
-5.30638e-07
-4.59145e-07
-5.88353e-07
-6.71689e-07
-5.28607e-07
-4.47372e-07
-5.90382e-07
-6.78936e-07
-5.27136e-07
-4.40124e-07
-5.91853e-07
-6.827e-07
-5.25982e-07
-4.3636e-07
-5.93008e-07
)
;

boundaryField
{
    inlet
    {
        type            cyclic;
    }
    outlet
    {
        type            cyclic;
    }
    fixedWalls-bottom
    {
        type            zeroGradient;
    }
    fixedWalls-top
    {
        type            symmetry;
    }
    frontAndBack
    {
        type            empty;
    }
}


// ************************************************************************* //
