/*--------------------------------*- C++ -*----------------------------------*\
  =========                 |
  \\      /  F ield         | OpenFOAM: The Open Source CFD Toolbox
   \\    /   O peration     | Website:  https://openfoam.org
    \\  /    A nd           | Version:  10
     \\/     M anipulation  |
\*---------------------------------------------------------------------------*/
FoamFile
{
    format      ascii;
    class       surfaceScalarField;
    location    "4300";
    object      phi;
}
// * * * * * * * * * * * * * * * * * * * * * * * * * * * * * * * * * * * * * //

dimensions      [0 3 -1 0 0 0 0];

internalField   nonuniform List<scalar> 
696
(
0.000373989
-2.37735e-09
0.00037398
9.02316e-09
0.000373978
2.36115e-09
-9.02296e-09
0.00113946
-7.88534e-09
0.00113943
3.64505e-08
0.00113943
7.86947e-09
-3.64499e-08
0.00193066
-1.46659e-08
0.00193061
8.26896e-08
0.0019306
1.46507e-08
-8.26887e-08
0.00273138
-1.98796e-08
0.00273132
1.44734e-07
0.00273131
1.98647e-08
-1.44733e-07
0.00350053
-1.98818e-08
0.00350047
2.10352e-07
0.00350047
1.98675e-08
-2.1035e-07
0.00419539
-1.27565e-08
0.00419534
2.63179e-07
0.00419534
1.27425e-08
-2.63177e-07
0.00480347
1.30577e-09
0.00480344
2.94897e-07
0.00480346
-1.31931e-09
-2.94895e-07
0.00533859
2.25169e-08
0.00533857
3.12357e-07
0.00533859
-2.25302e-08
-3.12355e-07
0.00581787
4.9276e-08
0.00581786
3.23789e-07
0.00581789
-4.9289e-08
-3.23787e-07
0.00625338
7.80037e-08
0.00625337
3.31772e-07
0.0062534
-7.80165e-08
-3.3177e-07
0.00665434
1.05406e-07
0.00665434
3.37309e-07
0.00665437
-1.05419e-07
-3.37307e-07
0.00702809
1.29068e-07
0.00702809
3.40699e-07
0.00702811
-1.2908e-07
-3.40697e-07
0.00738034
1.47577e-07
0.00738034
3.41923e-07
0.00738036
-1.47589e-07
-3.4192e-07
0.00771554
1.60437e-07
0.00771554
3.40804e-07
0.00771555
-1.60449e-07
-3.40802e-07
0.00803715
1.67862e-07
0.00803716
3.37129e-07
0.00803716
-1.67873e-07
-3.37126e-07
0.00834792
1.70558e-07
0.00834793
3.30753e-07
0.00834793
-1.70569e-07
-3.30751e-07
0.00865002
1.69522e-07
0.00865003
3.21678e-07
0.00865003
-1.69534e-07
-3.21676e-07
0.00894517
1.65856e-07
0.00894518
3.10086e-07
0.00894518
-1.65868e-07
-3.10083e-07
0.00923479
1.60617e-07
0.00923481
2.9634e-07
0.0092348
-1.60628e-07
-2.96337e-07
0.00952004
1.54701e-07
0.00952005
2.80959e-07
0.00952005
-1.54712e-07
-2.80957e-07
0.00980186
1.48774e-07
0.00980187
2.64565e-07
0.00980187
-1.48785e-07
-2.64563e-07
0.0100811
1.43252e-07
0.0100811
2.47806e-07
0.0100811
-1.43263e-07
-2.47803e-07
0.0103583
1.38342e-07
0.0103583
2.31271e-07
0.0103583
-1.38353e-07
-2.31269e-07
0.0106342
1.3411e-07
0.0106342
2.15422e-07
0.0106342
-1.34121e-07
-2.1542e-07
0.0109092
1.30546e-07
0.0109093
2.00548e-07
0.0109093
-1.30557e-07
-2.00546e-07
0.0111839
1.27606e-07
0.0111839
1.86786e-07
0.0111839
-1.27616e-07
-1.86783e-07
0.0114585
1.25215e-07
0.0114585
1.74176e-07
0.0114585
-1.25226e-07
-1.74173e-07
0.0117334
1.23284e-07
0.0117334
1.62716e-07
0.0117334
-1.23294e-07
-1.62713e-07
0.012009
1.21719e-07
0.012009
1.52389e-07
0.012009
-1.21729e-07
-1.52386e-07
0.0122855
1.20432e-07
0.0122855
1.43171e-07
0.0122855
-1.20442e-07
-1.43168e-07
0.0125633
1.19337e-07
0.0125633
1.35022e-07
0.0125633
-1.19347e-07
-1.35019e-07
0.0128425
1.18358e-07
0.0128425
1.27878e-07
0.0128425
-1.18368e-07
-1.27875e-07
0.0131234
1.17428e-07
0.0131234
1.21647e-07
0.0131234
-1.17438e-07
-1.21644e-07
0.0134062
1.16496e-07
0.0134062
1.16214e-07
0.0134062
-1.16506e-07
-1.16212e-07
0.0136912
1.15517e-07
0.0136912
1.11465e-07
0.0136912
-1.15527e-07
-1.11462e-07
0.0139784
1.14449e-07
0.0139784
1.07307e-07
0.0139784
-1.14459e-07
-1.07304e-07
0.0142682
1.1326e-07
0.0142682
1.03696e-07
0.0142682
-1.1327e-07
-1.03693e-07
0.0145606
1.11943e-07
0.0145606
1.00636e-07
0.0145606
-1.11953e-07
-1.00633e-07
0.0148559
1.10538e-07
0.0148559
9.81525e-08
0.0148559
-1.10547e-07
-9.81494e-08
0.0151542
1.09153e-07
0.0151542
9.62462e-08
0.0151542
-1.09162e-07
-9.62431e-08
0.0154556
1.0796e-07
0.0154556
9.48198e-08
0.0154556
-1.07969e-07
-9.48167e-08
0.0157603
1.07137e-07
0.0157603
9.36116e-08
0.0157603
-1.07146e-07
-9.36086e-08
0.0160683
1.0673e-07
0.0160683
9.21592e-08
0.0160683
-1.06739e-07
-9.21561e-08
0.0163798
1.06433e-07
0.0163798
8.98506e-08
0.0163798
-1.06442e-07
-8.98475e-08
0.0166949
1.05339e-07
0.0166949
8.61321e-08
0.0166949
-1.05348e-07
-8.6129e-08
0.0170134
1.01781e-07
0.0170134
8.09037e-08
0.0170134
-1.0179e-07
-8.09006e-08
0.0173356
9.34741e-08
0.0173356
7.50244e-08
0.0173356
-9.34827e-08
-7.50213e-08
0.0176614
7.8189e-08
0.0176614
7.06344e-08
0.0176614
-7.81976e-08
-7.06313e-08
0.0179909
5.51271e-08
0.0179909
7.07172e-08
0.0179909
-5.51356e-08
-7.0714e-08
0.0183242
2.69353e-08
0.0183242
7.70784e-08
0.0183242
-2.69437e-08
-7.70752e-08
0.0186616
2.03103e-09
0.0186616
8.59058e-08
0.0186616
-2.03933e-09
-8.59027e-08
0.0190035
-1.54653e-08
0.0190035
9.29767e-08
0.0190034
1.54571e-08
-9.29736e-08
0.01935
-2.85067e-08
0.01935
9.82127e-08
0.01935
2.84986e-08
-9.82095e-08
0.0197015
-3.89197e-08
0.0197015
1.01832e-07
0.0197015
3.89117e-08
-1.01829e-07
0.0200579
-4.7707e-08
0.0200579
1.04023e-07
0.0200579
4.76992e-08
-1.0402e-07
0.0204194
-5.53155e-08
0.0204194
1.05045e-07
0.0204194
5.53078e-08
-1.05042e-07
0.0207861
-6.17724e-08
0.0207861
1.05194e-07
0.0207861
6.17648e-08
-1.05191e-07
0.0211582
-6.68066e-08
0.0211582
1.04755e-07
0.0211582
6.67991e-08
-1.04752e-07
0.0215356
-6.99768e-08
0.0215356
1.03983e-07
0.0215356
6.99694e-08
-1.03981e-07
0.0219185
-7.07902e-08
0.0219185
1.03069e-07
0.0219185
7.0783e-08
-1.03066e-07
0.0223071
-6.88152e-08
0.0223071
1.02118e-07
0.0223071
6.88081e-08
-1.02115e-07
0.0227013
-6.37887e-08
0.0227013
1.01167e-07
0.0227014
6.37818e-08
-1.01164e-07
0.0231014
-5.57033e-08
0.0231014
1.00187e-07
0.0231014
5.56965e-08
-1.00185e-07
0.0235074
-4.4858e-08
0.0235074
9.90884e-08
0.0235075
4.48513e-08
-9.90857e-08
0.0239195
-3.1867e-08
0.0239195
9.7775e-08
0.0239195
3.18604e-08
-9.77724e-08
0.0243376
-1.75898e-08
0.0243376
9.62498e-08
0.0243376
1.75833e-08
-9.62472e-08
0.0247619
-3.01383e-09
0.0247619
9.47627e-08
0.0247619
3.00755e-09
-9.47602e-08
0.0251925
1.09622e-08
0.0251925
9.37455e-08
0.0251925
-1.09684e-08
-9.37429e-08
0.0256294
2.37691e-08
0.0256294
9.36256e-08
0.0256294
-2.37751e-08
-9.36231e-08
0.0260728
3.54493e-08
0.0260728
9.47379e-08
0.0260728
-3.54553e-08
-9.47353e-08
0.0265227
4.63187e-08
0.0265227
9.73352e-08
0.0265228
-4.63245e-08
-9.73327e-08
0.0269793
5.66269e-08
0.0269793
1.01545e-07
0.0269793
-5.66326e-08
-1.01542e-07
0.0274424
6.65577e-08
0.0274424
1.07196e-07
0.0274424
-6.65634e-08
-1.07194e-07
0.0279123
7.60125e-08
0.0279123
1.13808e-07
0.0279123
-7.6018e-08
-1.13805e-07
0.028389
8.49243e-08
0.028389
1.2094e-07
0.028389
-8.49297e-08
-1.20937e-07
0.0288725
9.33498e-08
0.0288725
1.28351e-07
0.0288725
-9.33551e-08
-1.28348e-07
0.0293628
1.00687e-07
0.0293628
1.35354e-07
0.0293628
-1.00693e-07
-1.35352e-07
0.0298599
1.06878e-07
0.0298599
1.40717e-07
0.0298599
-1.06883e-07
-1.40714e-07
0.030364
1.11732e-07
0.030364
1.44211e-07
0.030364
-1.11737e-07
-1.44209e-07
0.0308749
1.14223e-07
0.0308749
1.46189e-07
0.0308749
-1.14228e-07
-1.46186e-07
0.0313927
1.14139e-07
0.0313927
1.46472e-07
0.0313927
-1.14144e-07
-1.46469e-07
0.0319172
1.13736e-07
0.0319172
1.45356e-07
0.0319172
-1.13741e-07
-1.45353e-07
0.0324485
1.15144e-07
0.0324485
1.43387e-07
0.0324485
-1.15149e-07
-1.43384e-07
0.0329864
1.17919e-07
0.0329864
1.40896e-07
0.0329864
-1.17924e-07
-1.40893e-07
0.0335308
1.21331e-07
0.0335308
1.38176e-07
0.0335308
-1.21336e-07
-1.38173e-07
0.0340816
1.24571e-07
0.0340816
1.35399e-07
0.0340816
-1.24575e-07
-1.35396e-07
0.0346385
1.2685e-07
0.0346385
1.32619e-07
0.0346385
-1.26854e-07
-1.32616e-07
0.0352013
1.27484e-07
0.0352013
1.29816e-07
0.0352013
-1.27488e-07
-1.29813e-07
0.0357697
1.25979e-07
0.0357697
1.26954e-07
0.0357697
-1.25983e-07
-1.26951e-07
0.0363434
1.22113e-07
0.0363435
1.24001e-07
0.0363434
-1.22117e-07
-1.23998e-07
0.036922
1.16016e-07
0.036922
1.20885e-07
0.036922
-1.1602e-07
-1.20882e-07
0.0375051
1.08199e-07
0.0375051
1.17385e-07
0.0375051
-1.08202e-07
-1.17383e-07
0.038092
9.94652e-08
0.038092
1.12989e-07
0.038092
-9.94682e-08
-1.12987e-07
0.0386824
9.05682e-08
0.0386824
1.06805e-07
0.0386824
-9.05709e-08
-1.06803e-07
0.0392756
8.13506e-08
0.0392756
9.76704e-08
0.0392756
-8.1353e-08
-9.76684e-08
0.0398709
6.89514e-08
0.0398709
8.46869e-08
0.0398709
-6.89533e-08
-8.46853e-08
0.0404678
5.2654e-08
0.0404678
6.76564e-08
0.0404678
-5.26554e-08
-6.76552e-08
0.0410655
3.46796e-08
0.0410655
4.68284e-08
0.0410655
-3.46805e-08
-4.68275e-08
0.0416633
1.70787e-08
0.0416634
2.37046e-08
0.0416634
-1.7079e-08
-2.37042e-08
0.0422606
0.0422606
0.0422606
)
;

boundaryField
{
    inlet
    {
        type            cyclic;
        value           nonuniform List<scalar> 
100
(
-0.0422606
-0.0416633
-0.0410655
-0.0404678
-0.0398709
-0.0392756
-0.0386824
-0.038092
-0.0375051
-0.036922
-0.0363434
-0.0357697
-0.0352013
-0.0346385
-0.0340816
-0.0335308
-0.0329864
-0.0324485
-0.0319172
-0.0313927
-0.0308749
-0.030364
-0.02986
-0.0293628
-0.0288725
-0.028389
-0.0279123
-0.0274424
-0.0269793
-0.0265228
-0.0260728
-0.0256294
-0.0251925
-0.0247619
-0.0243376
-0.0239195
-0.0235074
-0.0231014
-0.0227014
-0.0223071
-0.0219185
-0.0215356
-0.0211582
-0.0207861
-0.0204194
-0.0200579
-0.0197015
-0.01935
-0.0190034
-0.0186616
-0.0183242
-0.0179909
-0.0176614
-0.0173356
-0.0170134
-0.0166949
-0.0163798
-0.0160683
-0.0157603
-0.0154556
-0.0151542
-0.0148559
-0.0145606
-0.0142682
-0.0139784
-0.0136912
-0.0134062
-0.0131234
-0.0128425
-0.0125633
-0.0122855
-0.012009
-0.0117334
-0.0114585
-0.0111839
-0.0109092
-0.0106342
-0.0103583
-0.010081
-0.00980185
-0.00952003
-0.00923479
-0.00894517
-0.00865002
-0.00834793
-0.00803716
-0.00771555
-0.00738036
-0.00702811
-0.00665437
-0.00625341
-0.0058179
-0.00533861
-0.00480349
-0.0041954
-0.00350053
-0.00273137
-0.00193065
-0.00113945
-0.000373987
)
;
    }
    outlet
    {
        type            cyclic;
        value           nonuniform List<scalar> 
100
(
0.0422606
0.0416633
0.0410655
0.0404678
0.0398709
0.0392756
0.0386824
0.038092
0.0375051
0.036922
0.0363434
0.0357697
0.0352013
0.0346385
0.0340816
0.0335308
0.0329864
0.0324485
0.0319172
0.0313927
0.0308749
0.030364
0.02986
0.0293628
0.0288725
0.028389
0.0279123
0.0274424
0.0269793
0.0265228
0.0260728
0.0256294
0.0251925
0.0247619
0.0243376
0.0239195
0.0235074
0.0231014
0.0227014
0.0223071
0.0219185
0.0215356
0.0211582
0.0207861
0.0204194
0.0200579
0.0197015
0.01935
0.0190034
0.0186616
0.0183242
0.0179909
0.0176614
0.0173356
0.0170134
0.0166949
0.0163798
0.0160683
0.0157603
0.0154556
0.0151542
0.0148559
0.0145606
0.0142682
0.0139784
0.0136912
0.0134062
0.0131234
0.0128425
0.0125633
0.0122855
0.012009
0.0117334
0.0114585
0.0111839
0.0109092
0.0106342
0.0103583
0.010081
0.00980185
0.00952003
0.00923479
0.00894517
0.00865002
0.00834793
0.00803716
0.00771555
0.00738036
0.00702811
0.00665437
0.00625341
0.0058179
0.00533861
0.00480349
0.0041954
0.00350053
0.00273137
0.00193065
0.00113945
0.000373987
)
;
    }
    fixedWalls-bottom
    {
        type            calculated;
        value           uniform 0;
    }
    fixedWalls-top
    {
        type            symmetry;
        value           uniform 0;
    }
    frontAndBack
    {
        type            empty;
        value           nonuniform List<scalar> 0();
    }
}


// ************************************************************************* //
