/*--------------------------------*- C++ -*----------------------------------*\
  =========                 |
  \\      /  F ield         | OpenFOAM: The Open Source CFD Toolbox
   \\    /   O peration     | Website:  https://openfoam.org
    \\  /    A nd           | Version:  10
     \\/     M anipulation  |
\*---------------------------------------------------------------------------*/
FoamFile
{
    format      ascii;
    class       volVectorField;
    location    "4300";
    object      U;
}
// * * * * * * * * * * * * * * * * * * * * * * * * * * * * * * * * * * * * * //

dimensions      [0 1 -1 0 0 0 0];

internalField   nonuniform List<vector> 
400
(
(0.0405304 -5.3135e-10 0)
(0.0405293 1.19755e-09 0)
(0.0405285 5.23323e-10 0)
(0.0405289 -1.19742e-09 0)
(0.12177 -4.54009e-09 0)
(0.121767 1.88542e-08 0)
(0.121764 4.52241e-09 0)
(0.121765 -1.88538e-08 0)
(0.203453 -1.09261e-08 0)
(0.203447 5.62007e-08 0)
(0.203444 1.09094e-08 0)
(0.203446 -5.61999e-08 0)
(0.283832 -1.77354e-08 0)
(0.283823 1.13209e-07 0)
(0.283819 1.77201e-08 0)
(0.283822 -1.13207e-07 0)
(0.358699 -2.12273e-08 0)
(0.35869 1.79616e-07 0)
(0.358686 2.12126e-08 0)
(0.35869 -1.79615e-07 0)
(0.423922 -1.84922e-08 0)
(0.423914 2.39451e-07 0)
(0.423911 1.84783e-08 0)
(0.423916 -2.39449e-07 0)
(0.478614 -7.94224e-09 0)
(0.47861 2.80743e-07 0)
(0.478607 7.92866e-09 0)
(0.478613 -2.80741e-07 0)
(0.524534 1.08045e-08 0)
(0.524532 3.06544e-07 0)
(0.524531 -1.0818e-08 0)
(0.524536 -3.06542e-07 0)
(0.563677 3.5309e-08 0)
(0.563675 3.19731e-07 0)
(0.563675 -3.53221e-08 0)
(0.56368 -3.19729e-07 0)
(0.597447 6.36332e-08 0)
(0.597445 3.2867e-07 0)
(0.597445 -6.3646e-08 0)
(0.59745 -3.28668e-07 0)
(0.626915 9.22692e-08 0)
(0.626912 3.3521e-07 0)
(0.626914 -9.22819e-08 0)
(0.626918 -3.35208e-07 0)
(0.652918 1.18207e-07 0)
(0.652917 3.39662e-07 0)
(0.652918 -1.1822e-07 0)
(0.652921 -3.3966e-07 0)
(0.676108 1.39505e-07 0)
(0.676107 3.4199e-07 0)
(0.676108 -1.39518e-07 0)
(0.67611 -3.41988e-07 0)
(0.696987 1.55224e-07 0)
(0.696986 3.42057e-07 0)
(0.696987 -1.55236e-07 0)
(0.696988 -3.42055e-07 0)
(0.715944 1.65265e-07 0)
(0.715944 3.39658e-07 0)
(0.715945 -1.65277e-07 0)
(0.715945 -3.39656e-07 0)
(0.733287 1.70137e-07 0)
(0.733287 3.34608e-07 0)
(0.733288 -1.70149e-07 0)
(0.733287 -3.34605e-07 0)
(0.749257 1.70737e-07 0)
(0.749257 3.26825e-07 0)
(0.749258 -1.70748e-07 0)
(0.749257 -3.26822e-07 0)
(0.764048 1.6815e-07 0)
(0.764049 3.16398e-07 0)
(0.76405 -1.68162e-07 0)
(0.764049 -3.16395e-07 0)
(0.777818 1.63487e-07 0)
(0.777819 3.03604e-07 0)
(0.77782 -1.63498e-07 0)
(0.777818 -3.03601e-07 0)
(0.790693 1.57741e-07 0)
(0.790694 2.88896e-07 0)
(0.790695 -1.57752e-07 0)
(0.790693 -2.88894e-07 0)
(0.802779 1.517e-07 0)
(0.802781 2.72859e-07 0)
(0.802782 -1.51711e-07 0)
(0.80278 -2.72857e-07 0)
(0.814165 1.45901e-07 0)
(0.814166 2.56144e-07 0)
(0.814168 -1.45912e-07 0)
(0.814166 -2.56141e-07 0)
(0.824924 1.4065e-07 0)
(0.824925 2.39382e-07 0)
(0.824927 -1.40661e-07 0)
(0.824925 -2.3938e-07 0)
(0.835119 1.36069e-07 0)
(0.835121 2.23107e-07 0)
(0.835122 -1.3608e-07 0)
(0.83512 -2.23104e-07 0)
(0.844805 1.32179e-07 0)
(0.844807 2.0769e-07 0)
(0.844808 -1.3219e-07 0)
(0.844806 -2.07688e-07 0)
(0.854029 1.28944e-07 0)
(0.85403 1.93345e-07 0)
(0.854031 -1.28955e-07 0)
(0.85403 -1.93342e-07 0)
(0.862832 1.26297e-07 0)
(0.862833 1.80152e-07 0)
(0.862833 -1.26307e-07 0)
(0.862832 -1.80149e-07 0)
(0.871249 1.24157e-07 0)
(0.87125 1.68122e-07 0)
(0.87125 -1.24167e-07 0)
(0.871249 -1.68119e-07 0)
(0.879313 1.22431e-07 0)
(0.879314 1.5724e-07 0)
(0.879314 -1.22441e-07 0)
(0.879313 -1.57237e-07 0)
(0.887052 1.21026e-07 0)
(0.887053 1.47482e-07 0)
(0.887054 -1.21037e-07 0)
(0.887053 -1.47479e-07 0)
(0.894493 1.19854e-07 0)
(0.894493 1.38818e-07 0)
(0.894494 -1.19864e-07 0)
(0.894493 -1.38815e-07 0)
(0.901658 1.18833e-07 0)
(0.901658 1.31195e-07 0)
(0.901659 -1.18843e-07 0)
(0.901658 -1.31192e-07 0)
(0.908568 1.17892e-07 0)
(0.908568 1.24534e-07 0)
(0.908568 -1.17902e-07 0)
(0.908568 -1.24532e-07 0)
(0.915242 1.16973e-07 0)
(0.915242 1.18729e-07 0)
(0.915243 -1.16983e-07 0)
(0.915242 -1.18726e-07 0)
(0.921698 1.16027e-07 0)
(0.921698 1.13661e-07 0)
(0.921698 -1.16036e-07 0)
(0.921698 -1.13658e-07 0)
(0.927951 1.15009e-07 0)
(0.927951 1.09223e-07 0)
(0.927951 -1.15019e-07 0)
(0.927951 -1.0922e-07 0)
(0.934016 1.13881e-07 0)
(0.934016 1.05348e-07 0)
(0.934016 -1.13891e-07 0)
(0.934016 -1.05345e-07 0)
(0.939905 1.12619e-07 0)
(0.939906 1.02016e-07 0)
(0.939906 -1.12628e-07 0)
(0.939905 -1.02013e-07 0)
(0.945631 1.11236e-07 0)
(0.945632 9.92538e-08 0)
(0.945632 -1.11245e-07 0)
(0.945631 -9.92508e-08 0)
(0.951204 1.09809e-07 0)
(0.951205 9.70848e-08 0)
(0.951205 -1.09818e-07 0)
(0.951205 -9.70818e-08 0)
(0.956634 1.0849e-07 0)
(0.956634 9.54745e-08 0)
(0.956634 -1.085e-07 0)
(0.956634 -9.54715e-08 0)
(0.961928 1.07483e-07 0)
(0.961928 9.42496e-08 0)
(0.961928 -1.07493e-07 0)
(0.961928 -9.42465e-08 0)
(0.967092 1.06941e-07 0)
(0.967092 9.3035e-08 0)
(0.967092 -1.0695e-07 0)
(0.967092 -9.30319e-08 0)
(0.972132 1.06779e-07 0)
(0.972132 9.12499e-08 0)
(0.972132 -1.06788e-07 0)
(0.972132 -9.12468e-08 0)
(0.97705 1.06418e-07 0)
(0.97705 8.82319e-08 0)
(0.977051 -1.06427e-07 0)
(0.97705 -8.82288e-08 0)
(0.98185 1.04535e-07 0)
(0.98185 8.35633e-08 0)
(0.98185 -1.04543e-07 0)
(0.98185 -8.35601e-08 0)
(0.986531 9.89815e-08 0)
(0.986532 7.76182e-08 0)
(0.986532 -9.89902e-08 0)
(0.986531 -7.7615e-08 0)
(0.991096 8.71343e-08 0)
(0.991097 7.2147e-08 0)
(0.991097 -8.71425e-08 0)
(0.991096 -7.2144e-08 0)
(0.995547 6.7169e-08 0)
(0.995549 7.0168e-08 0)
(0.995547 -6.71768e-08 0)
(0.995546 -7.01651e-08 0)
(0.999891 4.06834e-08 0)
(0.999892 7.38608e-08 0)
(0.99989 -4.06928e-08 0)
(0.999889 -7.38573e-08 0)
(1.00414 1.50339e-08 0)
(1.00414 8.05196e-08 0)
(1.00414 -1.50431e-08 0)
(1.00414 -8.05161e-08 0)
(1.00832 -7.89491e-09 0)
(1.00832 8.93919e-08 0)
(1.00832 7.88725e-09 0)
(1.00832 -8.9389e-08 0)
(1.01243 -2.32581e-08 0)
(1.01243 9.60218e-08 0)
(1.01243 2.32502e-08 0)
(1.01243 -9.60187e-08 0)
(1.01648 -3.44985e-08 0)
(1.01648 1.00433e-07 0)
(1.01648 3.44905e-08 0)
(1.01648 -1.00429e-07 0)
(1.02048 -4.37853e-08 0)
(1.02048 1.0324e-07 0)
(1.02048 4.37774e-08 0)
(1.02048 -1.03237e-07 0)
(1.02443 -5.18837e-08 0)
(1.02443 1.04774e-07 0)
(1.02443 5.18759e-08 0)
(1.02443 -1.04771e-07 0)
(1.02833 -5.8923e-08 0)
(1.02833 1.05287e-07 0)
(1.02833 5.89153e-08 0)
(1.02833 -1.05284e-07 0)
(1.03218 -6.47287e-08 0)
(1.03218 1.05074e-07 0)
(1.03218 6.47212e-08 0)
(1.03218 -1.05072e-07 0)
(1.03598 -6.89162e-08 0)
(1.03598 1.04411e-07 0)
(1.03598 6.89088e-08 0)
(1.03598 -1.04408e-07 0)
(1.03974 -7.09923e-08 0)
(1.03974 1.03522e-07 0)
(1.03974 7.0985e-08 0)
(1.03974 -1.03519e-07 0)
(1.04346 -7.04696e-08 0)
(1.04346 1.02561e-07 0)
(1.04346 7.04625e-08 0)
(1.04346 -1.02558e-07 0)
(1.04713 -6.6981e-08 0)
(1.04713 1.01607e-07 0)
(1.04713 6.6974e-08 0)
(1.04713 -1.01604e-07 0)
(1.05077 -6.03764e-08 0)
(1.05077 1.00653e-07 0)
(1.05077 6.03696e-08 0)
(1.05077 -1.0065e-07 0)
(1.05437 -5.0798e-08 0)
(1.05437 9.96242e-08 0)
(1.05437 5.07913e-08 0)
(1.05437 -9.96214e-08 0)
(1.05793 -3.87127e-08 0)
(1.05793 9.84137e-08 0)
(1.05793 3.87061e-08 0)
(1.05793 -9.8411e-08 0)
(1.06146 -2.48732e-08 0)
(1.06146 9.69616e-08 0)
(1.06146 2.48667e-08 0)
(1.06146 -9.6959e-08 0)
(1.06494 -1.02598e-08 0)
(1.06494 9.54323e-08 0)
(1.06494 1.02534e-08 0)
(1.06494 -9.54297e-08 0)
(1.0684 4.15535e-09 0)
(1.0684 9.41134e-08 0)
(1.0684 -4.16159e-09 0)
(1.0684 -9.41109e-08 0)
(1.07181 1.76014e-08 0)
(1.07181 9.34685e-08 0)
(1.07181 -1.76075e-08 0)
(1.07181 -9.34659e-08 0)
(1.07519 2.99295e-08 0)
(1.07519 9.38804e-08 0)
(1.07519 -2.99355e-08 0)
(1.0752 -9.38779e-08 0)
(1.07854 4.11337e-08 0)
(1.07854 9.57206e-08 0)
(1.07854 -4.11396e-08 0)
(1.07854 -9.57181e-08 0)
(1.08185 5.17057e-08 0)
(1.08185 9.91491e-08 0)
(1.08185 -5.17114e-08 0)
(1.08185 -9.91466e-08 0)
(1.08512 6.17878e-08 0)
(1.08512 1.04125e-07 0)
(1.08512 -6.17935e-08 0)
(1.08512 -1.04122e-07 0)
(1.08835 7.14227e-08 0)
(1.08835 1.10289e-07 0)
(1.08835 -7.14282e-08 0)
(1.08835 -1.10287e-07 0)
(1.09155 8.06824e-08 0)
(1.09155 1.17323e-07 0)
(1.09155 -8.0688e-08 0)
(1.09155 -1.17321e-07 0)
(1.0947 8.94303e-08 0)
(1.0947 1.24835e-07 0)
(1.0947 -8.94356e-08 0)
(1.0947 -1.24833e-07 0)
(1.09781 9.71108e-08 0)
(1.09781 1.32105e-07 0)
(1.09781 -9.71161e-08 0)
(1.09781 -1.32103e-07 0)
(1.10087 1.04324e-07 0)
(1.10087 1.38241e-07 0)
(1.10087 -1.04329e-07 0)
(1.10087 -1.38238e-07 0)
(1.10389 1.09671e-07 0)
(1.10389 1.43017e-07 0)
(1.10389 -1.09676e-07 0)
(1.10389 -1.43014e-07 0)
(1.10685 1.13232e-07 0)
(1.10685 1.45687e-07 0)
(1.10685 -1.13237e-07 0)
(1.10685 -1.45684e-07 0)
(1.10977 1.14052e-07 0)
(1.10977 1.46643e-07 0)
(1.10977 -1.14057e-07 0)
(1.10977 -1.4664e-07 0)
(1.11262 1.14269e-07 0)
(1.11262 1.46189e-07 0)
(1.11262 -1.14274e-07 0)
(1.11262 -1.46186e-07 0)
(1.11541 1.14288e-07 0)
(1.11541 1.44496e-07 0)
(1.11541 -1.14292e-07 0)
(1.11541 -1.44493e-07 0)
(1.11813 1.16276e-07 0)
(1.11813 1.42201e-07 0)
(1.11813 -1.16281e-07 0)
(1.11813 -1.42198e-07 0)
(1.12078 1.19534e-07 0)
(1.12078 1.39573e-07 0)
(1.12078 -1.19539e-07 0)
(1.12078 -1.39571e-07 0)
(1.12335 1.23062e-07 0)
(1.12335 1.36821e-07 0)
(1.12335 -1.23067e-07 0)
(1.12335 -1.36819e-07 0)
(1.12583 1.25988e-07 0)
(1.12583 1.34055e-07 0)
(1.12583 -1.25993e-07 0)
(1.12583 -1.34052e-07 0)
(1.12822 1.27565e-07 0)
(1.12822 1.31287e-07 0)
(1.12822 -1.2757e-07 0)
(1.12822 -1.31284e-07 0)
(1.13049 1.27194e-07 0)
(1.13049 1.28484e-07 0)
(1.13049 -1.27198e-07 0)
(1.13049 -1.28481e-07 0)
(1.13265 1.24499e-07 0)
(1.13265 1.25611e-07 0)
(1.13265 -1.24503e-07 0)
(1.13265 -1.25608e-07 0)
(1.13468 1.19425e-07 0)
(1.13468 1.22625e-07 0)
(1.13468 -1.19429e-07 0)
(1.13468 -1.22623e-07 0)
(1.13657 1.12316e-07 0)
(1.13657 1.19395e-07 0)
(1.13657 -1.1232e-07 0)
(1.13657 -1.19392e-07 0)
(1.13831 1.03953e-07 0)
(1.13831 1.15564e-07 0)
(1.13831 -1.03957e-07 0)
(1.13831 -1.15562e-07 0)
(1.13988 9.52915e-08 0)
(1.13988 1.10439e-07 0)
(1.13988 -9.52945e-08 0)
(1.13988 -1.10437e-07 0)
(1.14126 8.6411e-08 0)
(1.14126 1.02992e-07 0)
(1.14126 -8.64135e-08 0)
(1.14126 -1.02989e-07 0)
(1.14245 7.48363e-08 0)
(1.14245 9.21516e-08 0)
(1.14245 -7.48385e-08 0)
(1.14245 -9.21489e-08 0)
(1.14343 6.09845e-08 0)
(1.14343 7.70953e-08 0)
(1.14343 -6.09866e-08 0)
(1.14343 -7.70936e-08 0)
(1.14419 4.37769e-08 0)
(1.14419 5.77137e-08 0)
(1.14419 -4.37783e-08 0)
(1.14419 -5.77135e-08 0)
(1.1447 2.63943e-08 0)
(1.1447 3.55763e-08 0)
(1.1447 -2.63943e-08 0)
(1.1447 -3.55763e-08 0)
(1.14496 8.83153e-09 0)
(1.14497 1.1955e-08 0)
(1.14497 -8.83137e-09 0)
(1.14496 -1.19546e-08 0)
)
;

boundaryField
{
    inlet
    {
        type            cyclic;
    }
    outlet
    {
        type            cyclic;
    }
    fixedWalls-bottom
    {
        type            noSlip;
    }
    fixedWalls-top
    {
        type            symmetry;
    }
    frontAndBack
    {
        type            empty;
    }
}


// ************************************************************************* //
