/*--------------------------------*- C++ -*----------------------------------*\
  =========                 |
  \\      /  F ield         | OpenFOAM: The Open Source CFD Toolbox
   \\    /   O peration     | Website:  https://openfoam.org
    \\  /    A nd           | Version:  10
     \\/     M anipulation  |
\*---------------------------------------------------------------------------*/
FoamFile
{
    format      ascii;
    class       volScalarField;
    location    "3779";
    object      k;
}
// * * * * * * * * * * * * * * * * * * * * * * * * * * * * * * * * * * * * * //

dimensions      [0 2 -2 0 0 0 0];

internalField   nonuniform List<scalar> 
400
(
1.33146e-07
1.33205e-07
1.33355e-07
1.33347e-07
3.99468e-06
3.99644e-06
4.00096e-06
4.00071e-06
2.8278e-05
2.82905e-05
2.83225e-05
2.83207e-05
0.000102537
0.000102583
0.000102699
0.000102693
0.00026298
0.000263103
0.000263399
0.000263381
0.000545112
0.000545382
0.000545988
0.000545948
0.000971524
0.000972042
0.000973095
0.000973018
0.00153806
0.00153894
0.00154053
0.0015404
0.00220988
0.00221121
0.00221334
0.00221313
0.00293428
0.00293603
0.0029386
0.00293833
0.00366049
0.00366252
0.00366539
0.00366507
0.0043521
0.0043542
0.00435724
0.00435687
0.00498885
0.0049908
0.00499388
0.00499349
0.00556306
0.00556474
0.00556777
0.00556736
0.00607607
0.0060776
0.00608051
0.00608002
0.00653081
0.00653219
0.00653492
0.00653433
0.00693104
0.00693228
0.00693479
0.00693405
0.00728117
0.00728227
0.00728454
0.00728363
0.0075858
0.00758678
0.00758879
0.00758769
0.00784939
0.00785026
0.00785199
0.00785071
0.00807609
0.00807687
0.00807833
0.00807687
0.00826968
0.00827041
0.0082716
0.00826999
0.00843359
0.00843431
0.00843524
0.00843354
0.00857089
0.00857163
0.00857232
0.00857057
0.00868432
0.00868508
0.00868557
0.0086838
0.00877633
0.00877711
0.00877743
0.0087757
0.00884913
0.00884991
0.00885009
0.00884843
0.00890467
0.00890545
0.00890551
0.00890395
0.0089447
0.00894546
0.00894543
0.008944
0.0089708
0.00897151
0.00897142
0.00897014
0.00898436
0.00898501
0.00898487
0.00898376
0.00898663
0.00898722
0.00898702
0.0089861
0.00897873
0.00897924
0.00897899
0.00897827
0.00896166
0.00896207
0.00896178
0.00896127
0.0089363
0.00893662
0.00893628
0.00893597
0.00890345
0.00890366
0.00890329
0.00890317
0.00886382
0.00886391
0.0088635
0.00886357
0.00881803
0.008818
0.00881756
0.00881782
0.00876665
0.00876652
0.00876604
0.00876649
0.00871021
0.00871
0.00870948
0.00871012
0.0086492
0.00864892
0.00864837
0.00864918
0.00858408
0.00858373
0.00858317
0.00858413
0.00851527
0.00851487
0.00851431
0.00851538
0.00844315
0.00844271
0.00844216
0.00844328
0.00836797
0.0083675
0.00836697
0.00836811
0.00828977
0.00828926
0.00828875
0.00828995
0.00820857
0.008208
0.00820751
0.00820882
0.00812442
0.00812378
0.00812332
0.00812474
0.00803737
0.00803667
0.00803621
0.00803776
0.00794747
0.0079467
0.00794625
0.0079479
0.00785476
0.00785393
0.00785347
0.00785523
0.00775928
0.00775839
0.00775792
0.00775977
0.00766107
0.00766013
0.00765964
0.00766156
0.00756016
0.00755919
0.00755867
0.00756066
0.0074566
0.00745561
0.00745505
0.00745709
0.00735043
0.00734943
0.00734883
0.00735091
0.00724169
0.0072407
0.00724005
0.00724215
0.00713043
0.00712946
0.00712876
0.00713088
0.00701671
0.00701576
0.00701502
0.00701714
0.00690058
0.00689966
0.00689887
0.00690099
0.00678209
0.0067812
0.00678038
0.00678248
0.0066613
0.00666044
0.0066596
0.00666168
0.00653827
0.00653745
0.00653658
0.00653863
0.00641305
0.00641225
0.00641139
0.00641339
0.00628569
0.00628493
0.00628406
0.00628602
0.00615625
0.00615552
0.00615464
0.00615658
0.00602477
0.00602407
0.00602319
0.00602511
0.00589131
0.00589062
0.00588976
0.00589165
0.0057559
0.00575524
0.00575438
0.00575625
0.00561858
0.00561795
0.00561709
0.00561894
0.00547941
0.0054788
0.00547795
0.00547976
0.00533841
0.00533783
0.00533698
0.00533874
0.00519563
0.00519508
0.00519423
0.00519594
0.00505111
0.00505061
0.00504974
0.0050514
0.00490489
0.00490444
0.00490357
0.00490516
0.00475704
0.00475662
0.00475576
0.00475729
0.00460763
0.00460723
0.00460639
0.00460786
0.00445673
0.00445634
0.00445552
0.00445693
0.00430443
0.00430405
0.00430326
0.00430461
0.00415084
0.00415047
0.0041497
0.00415101
0.0039961
0.00399575
0.00399501
0.00399625
0.00384037
0.00384005
0.00383935
0.00384051
0.00368389
0.0036836
0.00368293
0.003684
0.00352689
0.00352666
0.003526
0.00352698
0.00336971
0.00336953
0.00336888
0.00336977
0.00321274
0.0032126
0.00321196
0.00321278
0.00305646
0.00305633
0.00305571
0.00305648
0.00290146
0.00290132
0.00290072
0.00290144
0.00274843
0.00274828
0.0027477
0.00274839
0.00259825
0.0025981
0.00259752
0.0025982
0.00245197
0.00245184
0.00245126
0.00245193
0.00231089
0.0023108
0.00231021
0.00231088
0.00217656
0.00217651
0.00217592
0.00217659
0.00205084
0.00205078
0.00205024
0.00205086
0.00193585
0.00193574
0.00193526
0.00193581
0.00183393
0.00183379
0.00183337
0.00183386
0.00174765
0.00174751
0.00174716
0.00174763
0.00167973
0.00167959
0.00167929
0.00167977
0.00163266
0.00163248
0.00163223
0.00163273
0.00160842
0.00160823
0.001608
0.00160852
)
;

boundaryField
{
    inlet
    {
        type            cyclic;
    }
    outlet
    {
        type            cyclic;
    }
    fixedWalls-bottom
    {
        type            kqRWallFunction;
        value           nonuniform List<scalar> 4(1.33146e-07 1.33205e-07 1.33355e-07 1.33347e-07);
    }
    fixedWalls-top
    {
        type            symmetry;
    }
    frontAndBack
    {
        type            empty;
    }
}


// ************************************************************************* //
