/*--------------------------------*- C++ -*----------------------------------*\
  =========                 |
  \\      /  F ield         | OpenFOAM: The Open Source CFD Toolbox
   \\    /   O peration     | Website:  https://openfoam.org
    \\  /    A nd           | Version:  10
     \\/     M anipulation  |
\*---------------------------------------------------------------------------*/
FoamFile
{
    format      ascii;
    class       volScalarField;
    location    "3779";
    object      omega;
}
// * * * * * * * * * * * * * * * * * * * * * * * * * * * * * * * * * * * * * //

dimensions      [0 0 -1 0 0 0 0];

internalField   nonuniform List<scalar> 
400
(
6413.04
6413.04
6413.04
6413.04
1097.27
1097.27
1097.27
1097.27
370.018
370.018
370.019
370.019
175.343
175.344
175.345
175.345
101.217
101.219
101.219
101.22
66.603
66.6041
66.6033
66.6042
48.1741
48.1725
48.1707
48.1718
37.366
37.3604
37.3576
37.359
30.4854
30.4752
30.4717
30.4734
25.7683
25.7542
25.7505
25.7523
22.3174
22.3007
22.2972
22.299
19.6543
19.6367
19.6337
19.6354
17.5126
17.496
17.4936
17.4951
15.7364
15.7219
15.7201
15.7214
14.2271
14.2153
14.214
14.2151
12.9203
12.9113
12.9105
12.9117
11.7746
11.7675
11.7677
11.7696
10.7623
10.7563
10.7567
10.7601
9.86181
9.85716
9.85784
9.86232
9.05829
9.05517
9.05604
9.06145
8.34055
8.33858
8.33968
8.34581
7.69905
7.69795
7.69928
7.70589
7.12586
7.12526
7.12684
7.13367
6.61387
6.61356
6.61537
6.62218
6.15684
6.15673
6.15864
6.16528
5.74915
5.74918
5.75108
5.7574
5.38565
5.38579
5.38759
5.39346
5.06163
5.06185
5.06351
5.0688
4.77276
4.77303
4.77454
4.77914
4.51506
4.51535
4.51678
4.52053
4.2849
4.28523
4.28663
4.28938
4.07897
4.07935
4.08083
4.08239
3.89429
3.89469
3.89629
3.89664
3.7281
3.72845
3.72995
3.72957
3.57792
3.57832
3.57967
3.57885
3.44177
3.44232
3.44343
3.44232
3.31796
3.3187
3.31944
3.31812
3.20487
3.20583
3.20621
3.20469
3.10137
3.10235
3.10244
3.1007
3.00625
3.00715
3.00709
3.0051
2.91861
2.91941
2.91926
2.917
2.83763
2.83833
2.83811
2.83559
2.76254
2.76317
2.76289
2.76012
2.69271
2.69327
2.69293
2.68993
2.62753
2.62801
2.62764
2.62442
2.5665
2.56691
2.56651
2.56308
2.50917
2.50952
2.5091
2.50549
2.45514
2.45546
2.45502
2.45125
2.40407
2.40439
2.40393
2.40002
2.35565
2.356
2.3555
2.35149
2.3096
2.31001
2.30947
2.30537
2.26574
2.26615
2.26557
2.26143
2.22383
2.2242
2.22362
2.21942
2.18368
2.18401
2.18344
2.17917
2.14513
2.1454
2.14487
2.14055
2.10797
2.10819
2.1077
2.10337
2.07204
2.07221
2.07178
2.06743
2.03721
2.03737
2.03699
2.03259
2.00338
2.00362
2.0032
1.99875
1.97045
1.97073
1.97031
1.96585
1.93835
1.93864
1.93822
1.9338
1.90707
1.90736
1.90689
1.90252
1.87648
1.87678
1.87627
1.87193
1.84647
1.84699
1.84632
1.84197
1.81725
1.81771
1.81711
1.81255
1.78865
1.78902
1.78853
1.78365
1.76071
1.76099
1.76048
1.75528
1.7331
1.73352
1.73291
1.7275
1.706
1.70649
1.70585
1.70028
1.67937
1.67991
1.6793
1.67363
1.6532
1.65374
1.65321
1.64752
1.62745
1.62791
1.62753
1.62191
1.60209
1.60242
1.60224
1.59671
1.57703
1.57744
1.57736
1.5718
1.55245
1.55285
1.55282
1.54719
1.52808
1.52865
1.52857
1.52285
1.50392
1.5048
1.50458
1.49877
1.48012
1.48124
1.48084
1.47498
1.45654
1.45771
1.45741
1.45145
1.43319
1.43437
1.43413
1.42821
1.41004
1.41111
1.41098
1.40524
1.38698
1.38788
1.38797
1.3825
1.36387
1.36464
1.3652
1.35979
1.34088
1.34144
1.34253
1.33704
1.31784
1.31851
1.31981
1.31416
1.29473
1.29572
1.29705
1.29111
1.27165
1.27298
1.27425
1.26797
1.2485
1.25016
1.25147
1.24481
1.22547
1.2272
1.22867
1.22165
1.20254
1.20404
1.20587
1.19844
1.17961
1.18061
1.18304
1.17509
1.15665
1.15729
1.16005
1.15173
1.13372
1.13452
1.13683
1.12883
1.11091
1.11269
1.11367
1.10669
1.08819
1.09137
1.09124
1.08507
1.06831
1.07052
1.06992
1.06407
1.04943
1.05083
1.04994
1.04403
1.03101
1.03225
1.03174
1.02537
1.01581
1.01742
1.01572
1.00911
1.00515
1.00589
1.00496
0.998347
)
;

boundaryField
{
    inlet
    {
        type            cyclic;
    }
    outlet
    {
        type            cyclic;
    }
    fixedWalls-bottom
    {
        beta1           0.075;
        blended         0;
        type            omegaWallFunction;
        value           uniform 6413.04;
    }
    fixedWalls-top
    {
        type            symmetry;
    }
    frontAndBack
    {
        type            empty;
    }
}


// ************************************************************************* //
