/*--------------------------------*- C++ -*----------------------------------*\
  =========                 |
  \\      /  F ield         | OpenFOAM: The Open Source CFD Toolbox
   \\    /   O peration     | Website:  https://openfoam.org
    \\  /    A nd           | Version:  10
     \\/     M anipulation  |
\*---------------------------------------------------------------------------*/
FoamFile
{
    format      ascii;
    class       surfaceScalarField;
    location    "3779";
    object      phi;
}
// * * * * * * * * * * * * * * * * * * * * * * * * * * * * * * * * * * * * * //

dimensions      [0 3 -1 0 0 0 0];

internalField   nonuniform List<scalar> 
696
(
0.000204558
1.07445e-08
0.000204565
-6.32101e-09
0.000204575
-1.06689e-08
6.31934e-09
0.000623325
4.36512e-08
0.000623347
-2.77688e-08
0.000623379
-4.35758e-08
2.77643e-08
0.00105776
9.99269e-08
0.0010578
-6.70013e-08
0.00105786
-9.98517e-08
6.69939e-08
0.00150802
1.80466e-07
0.00150808
-1.27032e-07
0.00150817
-1.8039e-07
1.27021e-07
0.00197351
2.85383e-07
0.0019736
-2.11235e-07
0.0019737
-2.85308e-07
2.11221e-07
0.00245192
4.1287e-07
0.00245204
-3.22349e-07
0.00245216
-4.12794e-07
3.22333e-07
0.00293837
5.57663e-07
0.00293851
-4.60358e-07
0.00293865
-5.57587e-07
4.60338e-07
0.00342546
7.10162e-07
0.00342562
-6.19571e-07
0.00342577
-7.10086e-07
6.19549e-07
0.00390501
8.57508e-07
0.00390518
-7.86611e-07
0.00390533
-8.57432e-07
7.86587e-07
0.00437035
9.8658e-07
0.0043705
-9.416e-07
0.00437063
-9.86503e-07
9.41573e-07
0.00481763
1.08728e-06
0.00481775
-1.0628e-06
0.00481785
-1.0872e-06
1.06277e-06
0.0052457
1.15453e-06
0.00524577
-1.13217e-06
0.00524583
-1.15446e-06
1.13214e-06
0.00565518
1.18878e-06
0.00565519
-1.13928e-06
0.00565522
-1.18871e-06
1.13925e-06
0.00604829
1.18857e-06
0.00604827
-1.11734e-06
0.00604827
-1.18849e-06
1.11731e-06
0.00642747
1.15527e-06
0.00642746
-1.10326e-06
0.00642743
-1.15519e-06
1.10323e-06
0.00679431
1.09668e-06
0.00679431
-1.10248e-06
0.00679425
-1.0966e-06
1.10244e-06
0.00715009
1.02085e-06
0.0071501
-1.11499e-06
0.00715003
-1.02077e-06
1.11495e-06
0.00749604
9.35002e-07
0.00749607
-1.13906e-06
0.00749598
-9.34922e-07
1.13902e-06
0.00783334
8.4526e-07
0.00783337
-1.17217e-06
0.00783328
-8.4518e-07
1.17212e-06
0.00816308
7.56591e-07
0.00816312
-1.21163e-06
0.00816303
-7.5651e-07
1.21158e-06
0.0084863
6.72787e-07
0.00848635
-1.25478e-06
0.00848626
-6.72705e-07
1.25474e-06
0.00880397
5.9655e-07
0.00880402
-1.29907e-06
0.00880394
-5.96467e-07
1.29902e-06
0.00911699
5.29501e-07
0.00911703
-1.34205e-06
0.00911697
-5.29418e-07
1.342e-06
0.00942617
4.7222e-07
0.00942621
-1.38157e-06
0.00942615
-4.72136e-07
1.38151e-06
0.00973227
4.24372e-07
0.0097323
-1.41593e-06
0.00973225
-4.24287e-07
1.41587e-06
0.010036
3.84945e-07
0.010036
-1.44402e-06
0.010036
-3.8486e-07
1.44396e-06
0.010338
3.52514e-07
0.010338
-1.46532e-06
0.010338
-3.52428e-07
1.46526e-06
0.0106388
3.25503e-07
0.0106388
-1.47984e-06
0.0106388
-3.25416e-07
1.47979e-06
0.0109391
3.02364e-07
0.0109391
-1.48803e-06
0.0109391
-3.02277e-07
1.48797e-06
0.0112393
2.81709e-07
0.0112393
-1.49066e-06
0.0112393
-2.81621e-07
1.4906e-06
0.0115399
2.62339e-07
0.0115399
-1.48878e-06
0.0115399
-2.6225e-07
1.48872e-06
0.0118414
2.43263e-07
0.0118414
-1.48359e-06
0.0118414
-2.43174e-07
1.48353e-06
0.0121441
2.23635e-07
0.0121441
-1.47641e-06
0.0121441
-2.23545e-07
1.47635e-06
0.0124485
2.02692e-07
0.0124485
-1.46848e-06
0.0124485
-2.02601e-07
1.46841e-06
0.0127548
1.79618e-07
0.0127548
-1.46077e-06
0.0127548
-1.79526e-07
1.46071e-06
0.0130635
1.53477e-07
0.0130635
-1.45378e-06
0.0130634
-1.53384e-07
1.45371e-06
0.0133747
1.23239e-07
0.0133747
-1.44704e-06
0.0133747
-1.23146e-07
1.44697e-06
0.0136888
8.81161e-08
0.0136888
-1.43868e-06
0.0136888
-8.80221e-08
1.43861e-06
0.014006
4.83228e-08
0.014006
-1.42488e-06
0.014006
-4.8228e-08
1.42481e-06
0.0143266
6.48968e-09
0.0143266
-1.39966e-06
0.0143265
-6.39413e-09
1.39959e-06
0.0146507
-3.04041e-08
0.0146507
-1.35539e-06
0.0146506
3.05006e-08
1.35532e-06
0.0149786
-4.91279e-08
0.0149785
-1.28445e-06
0.0149785
4.92253e-08
1.28438e-06
0.0153103
-3.01486e-08
0.0153102
-1.18225e-06
0.0153103
3.02471e-08
1.18217e-06
0.0156462
4.68179e-08
0.0156461
-1.05098e-06
0.0156462
-4.67184e-08
1.0509e-06
0.0159866
1.84381e-07
0.0159864
-9.01631e-07
0.0159866
-1.8428e-07
9.01554e-07
0.0163318
3.30375e-07
0.0163317
-7.49167e-07
0.0163318
-3.30273e-07
7.49088e-07
0.0166824
4.41552e-07
0.0166822
-6.02824e-07
0.0166824
-4.4145e-07
6.02745e-07
0.0170385
5.22972e-07
0.0170383
-4.6592e-07
0.0170384
-5.22869e-07
4.65839e-07
0.0174002
5.79222e-07
0.0174001
-3.40888e-07
0.0174001
-5.79119e-07
3.40807e-07
0.0177678
6.14369e-07
0.0177677
-2.29566e-07
0.0177677
-6.14265e-07
2.29483e-07
0.0181414
6.31829e-07
0.0181413
-1.33321e-07
0.0181413
-6.31725e-07
1.33237e-07
0.0185212
6.34656e-07
0.0185211
-5.22822e-08
0.0185211
-6.34552e-07
5.21976e-08
0.0189073
6.25767e-07
0.0189072
1.46974e-08
0.0189072
-6.25661e-07
-1.47829e-08
0.0192998
6.07614e-07
0.0192998
6.9253e-08
0.0192998
-6.07508e-07
-6.93398e-08
0.019699
5.82427e-07
0.019699
1.13376e-07
0.019699
-5.82319e-07
-1.13464e-07
0.020105
5.52989e-07
0.020105
1.49236e-07
0.020105
-5.52881e-07
-1.49325e-07
0.020518
5.2239e-07
0.020518
1.78785e-07
0.0205179
-5.22281e-07
-1.78875e-07
0.020938
4.93162e-07
0.020938
2.03452e-07
0.0209379
-4.93052e-07
-2.03543e-07
0.0213652
4.65945e-07
0.0213652
2.24106e-07
0.0213652
-4.65834e-07
-2.24199e-07
0.0217998
4.40922e-07
0.0217997
2.41476e-07
0.0217997
-4.4081e-07
-2.4157e-07
0.0222418
4.20215e-07
0.0222418
2.56643e-07
0.0222418
-4.20101e-07
-2.56739e-07
0.0226915
4.06373e-07
0.0226914
2.7169e-07
0.0226914
-4.06259e-07
-2.71788e-07
0.0231488
4.01585e-07
0.0231488
2.89152e-07
0.0231488
-4.0147e-07
-2.89251e-07
0.0236141
4.0592e-07
0.0236141
3.09278e-07
0.0236141
-4.05803e-07
-3.09378e-07
0.0240874
4.17576e-07
0.0240873
3.30767e-07
0.0240874
-4.17458e-07
-3.30869e-07
0.0245687
4.34466e-07
0.0245687
3.5203e-07
0.0245687
-4.34347e-07
-3.52134e-07
0.0250583
4.51245e-07
0.0250583
3.72766e-07
0.0250583
-4.51124e-07
-3.72872e-07
0.0255563
4.60207e-07
0.0255563
3.92621e-07
0.0255563
-4.60084e-07
-3.92728e-07
0.0260628
4.55503e-07
0.0260627
4.09213e-07
0.0260627
-4.55379e-07
-4.09322e-07
0.0265778
4.34598e-07
0.0265778
4.2091e-07
0.0265778
-4.34473e-07
-4.21021e-07
0.0271015
3.98713e-07
0.0271015
4.2721e-07
0.0271014
-3.98587e-07
-4.27323e-07
0.027634
3.53716e-07
0.027634
4.29181e-07
0.0276339
-3.53587e-07
-4.29296e-07
0.0281754
3.09783e-07
0.0281754
4.29596e-07
0.0281753
-3.09653e-07
-4.29713e-07
0.0287257
2.74932e-07
0.0287257
4.29334e-07
0.0287257
-2.74801e-07
-4.29453e-07
0.0292851
2.51203e-07
0.0292851
4.28518e-07
0.0292851
-2.5107e-07
-4.2864e-07
0.0298536
2.36409e-07
0.0298536
4.27052e-07
0.0298536
-2.36274e-07
-4.27176e-07
0.0304313
2.24089e-07
0.0304313
4.20723e-07
0.0304313
-2.23952e-07
-4.20849e-07
0.0310182
2.0445e-07
0.0310182
4.05791e-07
0.0310182
-2.04312e-07
-4.05919e-07
0.0316143
1.70018e-07
0.0316143
3.79577e-07
0.0316143
-1.69878e-07
-3.79707e-07
0.0322196
1.17788e-07
0.0322197
3.41295e-07
0.0322196
-1.17648e-07
-3.41426e-07
0.0328342
4.79061e-08
0.0328342
2.97043e-07
0.0328342
-4.77638e-08
-2.97176e-07
0.0334579
-3.28778e-08
0.0334579
2.58017e-07
0.0334579
3.30213e-08
-2.58151e-07
0.0340906
-1.11501e-07
0.0340907
2.31466e-07
0.0340906
1.11645e-07
-2.31602e-07
0.0347323
-1.72611e-07
0.0347323
2.19715e-07
0.0347322
1.72756e-07
-2.19852e-07
0.0353826
-2.0799e-07
0.0353826
2.24149e-07
0.0353825
2.08135e-07
-2.24286e-07
0.0360413
-2.21534e-07
0.0360413
2.417e-07
0.0360413
2.21677e-07
-2.41836e-07
0.0367081
-2.23329e-07
0.0367081
2.66234e-07
0.0367081
2.23468e-07
-2.66367e-07
0.0373825
-2.22184e-07
0.0373825
2.88622e-07
0.0373825
2.22317e-07
-2.8875e-07
0.038064
-2.20964e-07
0.038064
3.00632e-07
0.038064
2.21089e-07
-3.00752e-07
0.0387517
-2.17316e-07
0.0387517
3.00553e-07
0.0387517
2.17432e-07
-3.00663e-07
0.0394449
-2.04501e-07
0.0394449
2.89377e-07
0.0394449
2.04605e-07
-2.89477e-07
0.0401424
-1.77292e-07
0.0401424
2.68622e-07
0.0401424
1.77382e-07
-2.68709e-07
0.0408427
-1.36934e-07
0.0408428
2.43115e-07
0.0408428
1.3701e-07
-2.43189e-07
0.0415444
-8.96498e-08
0.0415444
2.18039e-07
0.0415445
8.97103e-08
-2.18097e-07
0.0422454
-4.15271e-08
0.0422454
1.80448e-07
0.0422454
4.15713e-08
-1.8049e-07
0.0429434
1.51423e-09
0.0429434
1.33541e-07
0.0429435
-1.48304e-09
-1.33571e-07
0.043636
2.9605e-08
0.043636
9.85406e-08
0.043636
-2.95828e-08
-9.8562e-08
0.0443203
4.1291e-08
0.0443203
6.86224e-08
0.0443203
-4.12775e-08
-6.86357e-08
0.0449935
3.03567e-08
0.0449936
3.61692e-08
0.0449936
-3.03514e-08
-3.61745e-08
0.0456532
0.0456532
0.0456532
)
;

boundaryField
{
    inlet
    {
        type            cyclic;
        value           nonuniform List<scalar> 
100
(
-0.0456532
-0.0449935
-0.0443203
-0.043636
-0.0429434
-0.0422454
-0.0415444
-0.0408428
-0.0401424
-0.0394449
-0.0387517
-0.038064
-0.0373825
-0.0367081
-0.0360413
-0.0353825
-0.0347322
-0.0340906
-0.0334578
-0.0328341
-0.0322196
-0.0316142
-0.0310181
-0.0304313
-0.0298536
-0.0292851
-0.0287257
-0.0281753
-0.0276339
-0.0271015
-0.0265778
-0.0260628
-0.0255563
-0.0250584
-0.0245688
-0.0240874
-0.0236141
-0.0231488
-0.0226914
-0.0222418
-0.0217997
-0.0213652
-0.020938
-0.0205179
-0.020105
-0.019699
-0.0192998
-0.0189072
-0.0185212
-0.0181414
-0.0177678
-0.0174003
-0.0170385
-0.0166825
-0.016332
-0.0159867
-0.0156463
-0.0153104
-0.0149785
-0.0146507
-0.0143266
-0.014006
-0.0136888
-0.0133747
-0.0130635
-0.0127548
-0.0124485
-0.0121441
-0.0118414
-0.0115399
-0.0112393
-0.0109391
-0.0106388
-0.0103379
-0.0100359
-0.00973222
-0.00942611
-0.00911692
-0.0088039
-0.00848622
-0.00816299
-0.00783325
-0.00749596
-0.00715001
-0.00679425
-0.00642744
-0.00604829
-0.00565521
-0.00524576
-0.00481773
-0.00437048
-0.00390516
-0.00342561
-0.00293851
-0.00245205
-0.00197362
-0.00150811
-0.00105782
-0.000623358
-0.000204569
)
;
    }
    outlet
    {
        type            cyclic;
        value           nonuniform List<scalar> 
100
(
0.0456532
0.0449935
0.0443203
0.043636
0.0429434
0.0422454
0.0415444
0.0408428
0.0401424
0.0394449
0.0387517
0.038064
0.0373825
0.0367081
0.0360413
0.0353825
0.0347322
0.0340906
0.0334578
0.0328341
0.0322196
0.0316142
0.0310181
0.0304313
0.0298536
0.0292851
0.0287257
0.0281753
0.0276339
0.0271015
0.0265778
0.0260628
0.0255563
0.0250584
0.0245688
0.0240874
0.0236141
0.0231488
0.0226914
0.0222418
0.0217997
0.0213652
0.020938
0.0205179
0.020105
0.019699
0.0192998
0.0189072
0.0185212
0.0181414
0.0177678
0.0174003
0.0170385
0.0166825
0.016332
0.0159867
0.0156463
0.0153104
0.0149785
0.0146507
0.0143266
0.014006
0.0136888
0.0133747
0.0130635
0.0127548
0.0124485
0.0121441
0.0118414
0.0115399
0.0112393
0.0109391
0.0106388
0.0103379
0.0100359
0.00973222
0.00942611
0.00911692
0.0088039
0.00848622
0.00816299
0.00783325
0.00749596
0.00715001
0.00679425
0.00642744
0.00604829
0.00565521
0.00524576
0.00481773
0.00437048
0.00390516
0.00342561
0.00293851
0.00245205
0.00197362
0.00150811
0.00105782
0.000623358
0.000204569
)
;
    }
    fixedWalls-bottom
    {
        type            calculated;
        value           uniform 0;
    }
    fixedWalls-top
    {
        type            symmetry;
        value           uniform 0;
    }
    frontAndBack
    {
        type            empty;
        value           nonuniform List<scalar> 0();
    }
}


// ************************************************************************* //
