/*--------------------------------*- C++ -*----------------------------------*\
  =========                 |
  \\      /  F ield         | OpenFOAM: The Open Source CFD Toolbox
   \\    /   O peration     | Website:  https://openfoam.org
    \\  /    A nd           | Version:  10
     \\/     M anipulation  |
\*---------------------------------------------------------------------------*/
FoamFile
{
    format      ascii;
    class       volSymmTensorField;
    location    "3779";
    object      R;
}
// * * * * * * * * * * * * * * * * * * * * * * * * * * * * * * * * * * * * * //

dimensions      [0 2 -2 0 0 0 0];

internalField   nonuniform List<symmTensor> 
400
(
(8.87641e-08 -1.99054e-10 -0 8.87641e-08 -0 8.87641e-08)
(8.88031e-08 -1.99141e-10 -0 8.88031e-08 -0 8.88031e-08)
(8.89036e-08 -1.99381e-10 -0 8.89036e-08 -0 8.89036e-08)
(8.8898e-08 -1.99375e-10 -0 8.8898e-08 -0 8.8898e-08)
(2.66312e-06 -3.47398e-08 -0 2.66312e-06 -0 2.66312e-06)
(2.66429e-06 -3.47551e-08 -0 2.66429e-06 -0 2.66429e-06)
(2.66731e-06 -3.47971e-08 -0 2.66731e-06 -0 2.66731e-06)
(2.66714e-06 -3.4796e-08 -0 2.66714e-06 -0 2.66714e-06)
(1.8852e-05 -7.25528e-07 -0 1.8852e-05 -0 1.8852e-05)
(1.88603e-05 -7.25853e-07 -0 1.88603e-05 -0 1.88603e-05)
(1.88816e-05 -7.26732e-07 -0 1.88816e-05 -0 1.88816e-05)
(1.88805e-05 -7.26705e-07 -0 1.88805e-05 -0 1.88805e-05)
(6.83583e-05 -5.51488e-06 -0 6.83583e-05 -0 6.83583e-05)
(6.83889e-05 -5.51739e-06 -0 6.8389e-05 -0 6.8389e-05)
(6.84662e-05 -5.52407e-06 -0 6.84662e-05 -0 6.84662e-05)
(6.84618e-05 -5.52382e-06 -0 6.84618e-05 -0 6.84618e-05)
(0.00017532 -2.42394e-05 -0 0.00017532 -0 0.00017532)
(0.000175402 -2.42508e-05 -0 0.000175402 -0 0.000175402)
(0.000175599 -2.42801e-05 -0 0.000175599 -0 0.000175599)
(0.000175587 -2.42787e-05 -0 0.000175587 -0 0.000175587)
(0.000363409 -7.48874e-05 -0 0.000363408 -0 0.000363408)
(0.000363587 -7.4926e-05 -0 0.000363588 -0 0.000363588)
(0.000363992 -7.50159e-05 -0 0.000363992 -0 0.000363992)
(0.000363966 -7.50099e-05 -0 0.000363965 -0 0.000363966)
(0.000647684 -0.00017847 -0 0.000647682 -0 0.000647683)
(0.000648027 -0.000178579 -0 0.000648029 -0 0.000648028)
(0.000648729 -0.000178789 -0 0.000648731 -0 0.00064873)
(0.000648679 -0.00017877 -0 0.000648677 -0 0.000648678)
(0.00102537 -0.000346117 -0 0.00102537 -0 0.00102537)
(0.00102596 -0.000346383 -0 0.00102596 -0 0.00102596)
(0.00102702 -0.000346772 -0 0.00102702 -0 0.00102702)
(0.00102693 -0.000346723 -0 0.00102693 -0 0.00102693)
(0.00147326 -0.000568867 -0 0.00147325 -0 0.00147326)
(0.00147413 -0.000569407 -0 0.00147414 -0 0.00147414)
(0.00147555 -0.000569999 -0 0.00147556 -0 0.00147556)
(0.00147543 -0.0005699 -0 0.00147542 -0 0.00147542)
(0.0019562 -0.000821941 -0 0.00195618 -0 0.00195619)
(0.00195735 -0.000822852 -0 0.00195736 -0 0.00195735)
(0.00195906 -0.000823618 -0 0.00195907 -0 0.00195907)
(0.0019589 -0.000823454 -0 0.00195888 -0 0.00195889)
(0.00244033 -0.00107879 -0 0.00244032 -0 0.00244033)
(0.00244167 -0.00108008 -0 0.00244168 -0 0.00244168)
(0.00244359 -0.00108096 -0 0.0024436 -0 0.0024436)
(0.00244339 -0.00108073 -0 0.00244337 -0 0.00244338)
(0.00290141 -0.00132104 -0 0.00290139 -0 0.0029014)
(0.00290279 -0.00132262 -0 0.0029028 -0 0.0029028)
(0.00290482 -0.00132354 -0 0.00290483 -0 0.00290482)
(0.00290459 -0.00132326 -0 0.00290458 -0 0.00290458)
(0.0033259 -0.00154142 -0 0.00332589 -0 0.0033259)
(0.0033272 -0.00154327 -0 0.0033272 -0 0.0033272)
(0.00332925 -0.00154421 -0 0.00332926 -0 0.00332925)
(0.00332899 -0.00154386 -0 0.00332899 -0 0.00332899)
(0.00370871 -0.00172455 -0 0.00370871 -0 0.00370871)
(0.00370983 -0.00172507 -0 0.00370983 -0 0.00370983)
(0.00371185 -0.00172601 -0 0.00371185 -0 0.00371185)
(0.00371157 -0.00172588 -0 0.00371157 -0 0.00371157)
(0.00405071 -0.00188358 -0 0.00405072 -0 0.00405071)
(0.00405174 -0.00188406 -0 0.00405173 -0 0.00405173)
(0.00405368 -0.00188496 -0 0.00405367 -0 0.00405367)
(0.00405334 -0.00188481 -0 0.00405335 -0 0.00405334)
(0.00435386 -0.00202456 -0 0.00435388 -0 0.00435387)
(0.00435479 -0.00202498 -0 0.00435479 -0 0.00435479)
(0.00435663 -0.00202583 -0 0.00435661 -0 0.00435662)
(0.00435622 -0.00202565 -0 0.00435622 -0 0.00435622)
(0.00462068 -0.00214864 -0 0.00462071 -0 0.00462069)
(0.00462151 -0.00214902 -0 0.00462152 -0 0.00462152)
(0.00462321 -0.0021498 -0 0.00462318 -0 0.00462319)
(0.0046227 -0.00214957 -0 0.0046227 -0 0.0046227)
(0.00485409 -0.00225721 -0 0.00485413 -0 0.00485411)
(0.00485484 -0.00225755 -0 0.00485485 -0 0.00485485)
(0.00485638 -0.00225825 -0 0.00485634 -0 0.00485636)
(0.00485576 -0.00225797 -0 0.00485575 -0 0.00485575)
(0.00505718 -0.00235171 -0 0.00505722 -0 0.0050572)
(0.00505785 -0.00235201 -0 0.00505786 -0 0.00505786)
(0.00505921 -0.00235263 -0 0.00505917 -0 0.00505919)
(0.00505847 -0.00235229 -0 0.00505845 -0 0.00505846)
(0.0052329 -0.00243354 -0 0.00523295 -0 0.00523293)
(0.0052335 -0.00243381 -0 0.00523352 -0 0.00523351)
(0.00523469 -0.00243435 -0 0.00523464 -0 0.00523466)
(0.00523381 -0.00243395 -0 0.00523379 -0 0.0052338)
(0.00538403 -0.0025039 -0 0.00538408 -0 0.00538406)
(0.00538457 -0.00250414 -0 0.00538459 -0 0.00538458)
(0.00538558 -0.00250459 -0 0.00538553 -0 0.00538555)
(0.00538459 -0.00250414 -0 0.00538456 -0 0.00538458)
(0.00551309 -0.00256375 -0 0.00551315 -0 0.00551312)
(0.00551359 -0.00256398 -0 0.00551362 -0 0.00551361)
(0.00551442 -0.00256435 -0 0.00551437 -0 0.0055144)
(0.00551334 -0.00256385 -0 0.00551332 -0 0.00551333)
(0.00562237 -0.00261449 -0 0.00562242 -0 0.0056224)
(0.00562286 -0.00261471 -0 0.00562289 -0 0.00562287)
(0.00562352 -0.002615 -0 0.00562347 -0 0.0056235)
(0.00562238 -0.00261447 -0 0.00562234 -0 0.00562236)
(0.0057139 -0.00265701 -0 0.00571395 -0 0.00571393)
(0.0057144 -0.00265724 -0 0.00571443 -0 0.00571442)
(0.0057149 -0.00265746 -0 0.00571486 -0 0.00571488)
(0.00571373 -0.00265691 -0 0.0057137 -0 0.00571371)
(0.00578953 -0.00269216 -0 0.00578957 -0 0.00578955)
(0.00579004 -0.00269239 -0 0.00579007 -0 0.00579005)
(0.0057904 -0.00269254 -0 0.00579036 -0 0.00579038)
(0.00578922 -0.002692 -0 0.00578919 -0 0.0057892)
(0.00585087 -0.00272067 -0 0.00585091 -0 0.00585089)
(0.0058514 -0.00272091 -0 0.00585142 -0 0.00585141)
(0.00585164 -0.00272101 -0 0.0058516 -0 0.00585162)
(0.00585048 -0.00272048 -0 0.00585045 -0 0.00585047)
(0.00589941 -0.00274324 -0 0.00589944 -0 0.00589942)
(0.00589993 -0.00274348 -0 0.00589995 -0 0.00589994)
(0.00590008 -0.00274353 -0 0.00590005 -0 0.00590006)
(0.00589896 -0.00274302 -0 0.00589894 -0 0.00589895)
(0.00593643 -0.00276045 -0 0.00593646 -0 0.00593645)
(0.00593696 -0.00276069 -0 0.00593697 -0 0.00593696)
(0.00593702 -0.00276071 -0 0.00593699 -0 0.00593701)
(0.00593597 -0.00276023 -0 0.00593596 -0 0.00593597)
(0.00596312 -0.00277286 -0 0.00596315 -0 0.00596314)
(0.00596363 -0.00277309 -0 0.00596364 -0 0.00596364)
(0.00596363 -0.00277309 -0 0.00596361 -0 0.00596362)
(0.00596267 -0.00277264 -0 0.00596266 -0 0.00596267)
(0.00598052 -0.00278095 -0 0.00598054 -0 0.00598053)
(0.00598101 -0.00278117 -0 0.00598101 -0 0.00598101)
(0.00598096 -0.00278114 -0 0.00598094 -0 0.00598095)
(0.00598009 -0.00278074 -0 0.00598009 -0 0.00598009)
(0.00598956 -0.00278515 -0 0.00598958 -0 0.00598957)
(0.00599001 -0.00278536 -0 0.00599001 -0 0.00599001)
(0.00598992 -0.00278531 -0 0.0059899 -0 0.00598991)
(0.00598917 -0.00278497 -0 0.00598917 -0 0.00598917)
(0.00599107 -0.00278586 -0 0.0059911 -0 0.00599109)
(0.00599148 -0.00278604 -0 0.00599147 -0 0.00599148)
(0.00599136 -0.00278598 -0 0.00599133 -0 0.00599134)
(0.00599073 -0.00278569 -0 0.00599074 -0 0.00599073)
(0.00598581 -0.00278341 -0 0.00598583 -0 0.00598582)
(0.00598616 -0.00278356 -0 0.00598615 -0 0.00598616)
(0.005986 -0.00278349 -0 0.00598598 -0 0.00598599)
(0.00598551 -0.00278327 -0 0.00598552 -0 0.00598552)
(0.00597443 -0.00277811 -0 0.00597445 -0 0.00597444)
(0.00597472 -0.00277824 -0 0.00597471 -0 0.00597472)
(0.00597454 -0.00277815 -0 0.00597451 -0 0.00597452)
(0.00597417 -0.00277799 -0 0.00597418 -0 0.00597418)
(0.00595752 -0.00277025 -0 0.00595755 -0 0.00595754)
(0.00595775 -0.00277035 -0 0.00595774 -0 0.00595774)
(0.00595754 -0.00277025 -0 0.00595751 -0 0.00595752)
(0.00595731 -0.00277015 -0 0.00595732 -0 0.00595731)
(0.00593562 -0.00276007 -0 0.00593565 -0 0.00593564)
(0.00593578 -0.00276013 -0 0.00593577 -0 0.00593577)
(0.00593554 -0.00276002 -0 0.00593551 -0 0.00593552)
(0.00593544 -0.00275998 -0 0.00593545 -0 0.00593545)
(0.00590919 -0.00274778 -0 0.00590923 -0 0.00590921)
(0.00590927 -0.00274781 -0 0.00590927 -0 0.00590927)
(0.00590902 -0.00274768 -0 0.00590898 -0 0.005909)
(0.00590904 -0.00274771 -0 0.00590905 -0 0.00590905)
(0.00587866 -0.00273359 -0 0.00587871 -0 0.00587868)
(0.00587867 -0.00273358 -0 0.00587866 -0 0.00587867)
(0.0058784 -0.00273344 -0 0.00587835 -0 0.00587837)
(0.00587854 -0.00273352 -0 0.00587855 -0 0.00587855)
(0.0058444 -0.00271766 -0 0.00584446 -0 0.00584443)
(0.00584436 -0.00271762 -0 0.00584434 -0 0.00584435)
(0.00584405 -0.00271747 -0 0.005844 -0 0.00584403)
(0.00584432 -0.00271761 -0 0.00584434 -0 0.00584433)
(0.00580678 -0.00270017 -0 0.00580684 -0 0.00580681)
(0.00580668 -0.0027001 -0 0.00580665 -0 0.00580667)
(0.00580635 -0.00269994 -0 0.00580629 -0 0.00580632)
(0.00580673 -0.00270014 -0 0.00580676 -0 0.00580675)
(0.00576611 -0.00268125 -0 0.00576616 -0 0.00576613)
(0.00576598 -0.00268116 -0 0.00576591 -0 0.00576594)
(0.0057656 -0.00268099 -0 0.00576555 -0 0.00576558)
(0.00576609 -0.00268125 -0 0.00576615 -0 0.00576612)
(0.00572271 -0.00266107 -0 0.00572273 -0 0.00572272)
(0.00572254 -0.00266096 -0 0.00572243 -0 0.00572249)
(0.00572213 -0.00266078 -0 0.0057221 -0 0.00572211)
(0.00572271 -0.00266108 -0 0.00572281 -0 0.00572276)
(0.00567686 -0.00263973 -0 0.00567683 -0 0.00567685)
(0.00567665 -0.00263961 -0 0.0056765 -0 0.00567658)
(0.00567619 -0.00263944 -0 0.00567622 -0 0.00567621)
(0.00567685 -0.00263977 -0 0.005677 -0 0.00567692)
(0.00562882 -0.00261738 -0 0.0056287 -0 0.00562877)
(0.00562857 -0.00261724 -0 0.00562838 -0 0.00562847)
(0.00562805 -0.00261707 -0 0.00562817 -0 0.00562811)
(0.00562876 -0.00261742 -0 0.00562895 -0 0.00562886)
(0.00557875 -0.00259407 -0 0.00557855 -0 0.00557864)
(0.00557845 -0.00259378 -0 0.00557822 -0 0.00557833)
(0.00557788 -0.00259376 -0 0.00557808 -0 0.00557798)
(0.00557863 -0.00259411 -0 0.00557885 -0 0.00557874)
(0.00552662 -0.00256461 -0 0.00552641 -0 0.00552651)
(0.00552629 -0.00256423 -0 0.00552606 -0 0.00552617)
(0.00552572 -0.00256445 -0 0.00552594 -0 0.00552583)
(0.00552652 -0.00256764 -0 0.00552675 -0 0.00552664)
(0.00547247 -0.00253626 -0 0.00547229 -0 0.00547238)
(0.00547211 -0.00253611 -0 0.00547189 -0 0.005472)
(0.00547159 -0.00253643 -0 0.00547176 -0 0.00547167)
(0.00547244 -0.00253901 -0 0.00547266 -0 0.00547255)
(0.00541634 -0.00250717 -0 0.00541622 -0 0.00541628)
(0.00541596 -0.00250705 -0 0.00541575 -0 0.00541586)
(0.00541548 -0.00250748 -0 0.00541561 -0 0.00541554)
(0.00541639 -0.00251046 -0 0.0054166 -0 0.0054165)
(0.00535829 -0.00247723 -0 0.0053582 -0 0.00535825)
(0.00535787 -0.0024771 -0 0.00535769 -0 0.00535778)
(0.00535743 -0.00247762 -0 0.00535752 -0 0.00535748)
(0.00535841 -0.00248096 -0 0.0053586 -0 0.0053585)
(0.00529834 -0.00244646 -0 0.00529829 -0 0.00529831)
(0.00529788 -0.00244629 -0 0.00529772 -0 0.0052978)
(0.00529747 -0.00244688 -0 0.00529753 -0 0.0052975)
(0.00529852 -0.00245055 -0 0.00529868 -0 0.0052986)
(0.00523652 -0.0024149 -0 0.00523649 -0 0.00523651)
(0.00523602 -0.00241464 -0 0.00523588 -0 0.00523595)
(0.00523564 -0.0024153 -0 0.00523566 -0 0.00523565)
(0.00523675 -0.00241926 -0 0.00523689 -0 0.00523682)
(0.00517285 -0.00238252 -0 0.00517285 -0 0.00517285)
(0.00517232 -0.00238222 -0 0.0051722 -0 0.00517226)
(0.00517195 -0.0023829 -0 0.00517195 -0 0.00517195)
(0.00517312 -0.00238711 -0 0.00517324 -0 0.00517318)
(0.00510737 -0.00234938 -0 0.00510738 -0 0.00510738)
(0.0051068 -0.00234903 -0 0.00510671 -0 0.00510675)
(0.00510643 -0.0023497 -0 0.00510642 -0 0.00510643)
(0.00510766 -0.00235414 -0 0.00510776 -0 0.00510771)
(0.00504009 -0.00231547 -0 0.00504012 -0 0.00504011)
(0.0050395 -0.00231507 -0 0.00503942 -0 0.00503946)
(0.00503913 -0.00231571 -0 0.0050391 -0 0.00503911)
(0.0050404 -0.00232037 -0 0.00504048 -0 0.00504044)
(0.00497105 -0.00228079 -0 0.00497108 -0 0.00497107)
(0.00497044 -0.00228035 -0 0.00497038 -0 0.00497041)
(0.00497005 -0.00228095 -0 0.00497002 -0 0.00497003)
(0.00497136 -0.00228579 -0 0.00497143 -0 0.00497139)
(0.00490026 -0.00224537 -0 0.0049003 -0 0.00490028)
(0.00489965 -0.00224491 -0 0.0048996 -0 0.00489962)
(0.00489924 -0.00224545 -0 0.0048992 -0 0.00489922)
(0.00490058 -0.00225042 -0 0.00490063 -0 0.0049006)
(0.00482777 -0.00220925 -0 0.00482781 -0 0.00482779)
(0.00482715 -0.00220875 -0 0.00482711 -0 0.00482713)
(0.00482672 -0.00220923 -0 0.00482668 -0 0.0048267)
(0.00482808 -0.00221433 -0 0.00482812 -0 0.0048281)
(0.0047536 -0.0021724 -0 0.00475364 -0 0.00475362)
(0.00475299 -0.00217188 -0 0.00475296 -0 0.00475297)
(0.00475253 -0.00217228 -0 0.00475249 -0 0.00475251)
(0.0047539 -0.00217749 -0 0.00475394 -0 0.00475392)
(0.00467779 -0.00213484 -0 0.00467783 -0 0.00467781)
(0.00467719 -0.00213424 -0 0.00467716 -0 0.00467718)
(0.0046767 -0.00213463 -0 0.00467666 -0 0.00467668)
(0.00467808 -0.00213994 -0 0.00467811 -0 0.00467809)
(0.00460037 -0.00209657 -0 0.0046004 -0 0.00460039)
(0.00459978 -0.00209593 -0 0.00459976 -0 0.00459977)
(0.00459926 -0.00209629 -0 0.00459923 -0 0.00459925)
(0.00460065 -0.00210166 -0 0.00460067 -0 0.00460066)
(0.00452138 -0.0020576 -0 0.00452141 -0 0.00452139)
(0.00452081 -0.00205694 -0 0.00452079 -0 0.0045208)
(0.00452027 -0.00205726 -0 0.00452024 -0 0.00452025)
(0.00452164 -0.00206266 -0 0.00452166 -0 0.00452165)
(0.00444086 -0.0020179 -0 0.00444088 -0 0.00444087)
(0.00444031 -0.00201722 -0 0.00444029 -0 0.0044403)
(0.00443974 -0.00201754 -0 0.00443972 -0 0.00443973)
(0.00444111 -0.00202297 -0 0.00444113 -0 0.00444112)
(0.00435884 -0.00197748 -0 0.00435885 -0 0.00435885)
(0.00435831 -0.00197682 -0 0.00435829 -0 0.0043583)
(0.00435772 -0.00197712 -0 0.00435772 -0 0.00435772)
(0.00435907 -0.00198257 -0 0.0043591 -0 0.00435908)
(0.00427537 -0.00193643 -0 0.00427536 -0 0.00427537)
(0.00427485 -0.00193564 -0 0.00427482 -0 0.00427484)
(0.00427425 -0.00193603 -0 0.00427426 -0 0.00427426)
(0.00427558 -0.00194149 -0 0.00427561 -0 0.00427559)
(0.00419047 -0.00189454 -0 0.00419046 -0 0.00419046)
(0.00418996 -0.00189383 -0 0.00418994 -0 0.00418995)
(0.00418936 -0.00189419 -0 0.00418938 -0 0.00418937)
(0.00419067 -0.00189974 -0 0.0041907 -0 0.00419068)
(0.00410418 -0.00185198 -0 0.00410416 -0 0.00410417)
(0.00410369 -0.00185134 -0 0.00410366 -0 0.00410368)
(0.00410309 -0.00185163 -0 0.00410311 -0 0.0041031)
(0.00410437 -0.0018573 -0 0.0041044 -0 0.00410439)
(0.00401653 -0.00180862 -0 0.00401651 -0 0.00401652)
(0.00401606 -0.00180808 -0 0.00401603 -0 0.00401604)
(0.00401545 -0.00180839 -0 0.00401547 -0 0.00401546)
(0.00401673 -0.00181417 -0 0.00401675 -0 0.00401674)
(0.00392754 -0.00176468 -0 0.00392753 -0 0.00392754)
(0.00392709 -0.00176411 -0 0.00392707 -0 0.00392708)
(0.0039265 -0.00176446 -0 0.00392651 -0 0.00392651)
(0.00392775 -0.0017703 -0 0.00392778 -0 0.00392777)
(0.00383726 -0.00172002 -0 0.00383727 -0 0.00383726)
(0.00383683 -0.00171946 -0 0.00383681 -0 0.00383682)
(0.00383625 -0.00171981 -0 0.00383625 -0 0.00383625)
(0.00383749 -0.00172569 -0 0.00383751 -0 0.0038375)
(0.00374571 -0.00167467 -0 0.00374573 -0 0.00374572)
(0.0037453 -0.0016741 -0 0.00374529 -0 0.0037453)
(0.00374474 -0.00167442 -0 0.00374472 -0 0.00374473)
(0.00374595 -0.00168033 -0 0.00374596 -0 0.00374596)
(0.00365292 -0.00162862 -0 0.00365296 -0 0.00365294)
(0.00365253 -0.00162803 -0 0.00365253 -0 0.00365253)
(0.00365198 -0.00162829 -0 0.00365195 -0 0.00365196)
(0.00365317 -0.00163421 -0 0.00365317 -0 0.00365317)
(0.00355892 -0.00158188 -0 0.00355896 -0 0.00355894)
(0.00355855 -0.00158127 -0 0.00355855 -0 0.00355855)
(0.00355801 -0.00158143 -0 0.00355796 -0 0.00355798)
(0.00355916 -0.00158733 -0 0.00355916 -0 0.00355916)
(0.00346373 -0.00153441 -0 0.00346377 -0 0.00346375)
(0.00346339 -0.00153384 -0 0.00346339 -0 0.00346339)
(0.00346284 -0.00153387 -0 0.0034628 -0 0.00346282)
(0.00346396 -0.0015397 -0 0.00346396 -0 0.00346396)
(0.00336739 -0.00148628 -0 0.00336742 -0 0.00336741)
(0.00336707 -0.00148559 -0 0.00336707 -0 0.00336707)
(0.00336651 -0.00148558 -0 0.00336648 -0 0.00336649)
(0.0033676 -0.00149136 -0 0.0033676 -0 0.0033676)
(0.00326992 -0.00143731 -0 0.00326994 -0 0.00326993)
(0.00326962 -0.00143664 -0 0.00326962 -0 0.00326962)
(0.00326906 -0.00143658 -0 0.00326903 -0 0.00326904)
(0.00327011 -0.00144231 -0 0.00327011 -0 0.00327011)
(0.00317136 -0.00138766 -0 0.00317137 -0 0.00317136)
(0.00317108 -0.00138694 -0 0.00317108 -0 0.00317108)
(0.00317051 -0.00138688 -0 0.0031705 -0 0.00317051)
(0.00317153 -0.00139253 -0 0.00317153 -0 0.00317153)
(0.00307175 -0.00133732 -0 0.00307176 -0 0.00307175)
(0.00307149 -0.00133649 -0 0.00307149 -0 0.00307149)
(0.00307093 -0.00133648 -0 0.00307092 -0 0.00307092)
(0.00307191 -0.00134201 -0 0.0030719 -0 0.0030719)
(0.00297114 -0.00128619 -0 0.00297116 -0 0.00297115)
(0.00297089 -0.00128529 -0 0.0029709 -0 0.00297089)
(0.00297036 -0.00128537 -0 0.00297034 -0 0.00297035)
(0.0029713 -0.00129074 -0 0.00297128 -0 0.00297129)
(0.0028696 -0.00123438 -0 0.00286963 -0 0.00286962)
(0.00286935 -0.0012335 -0 0.00286938 -0 0.00286936)
(0.00286885 -0.00123348 -0 0.00286882 -0 0.00286884)
(0.00286975 -0.00123874 -0 0.00286973 -0 0.00286974)
(0.0027672 -0.00118185 -0 0.00276725 -0 0.00276722)
(0.00276696 -0.00118097 -0 0.00276699 -0 0.00276698)
(0.00276649 -0.00118087 -0 0.00276645 -0 0.00276647)
(0.00276736 -0.00118597 -0 0.00276732 -0 0.00276734)
(0.00266404 -0.00112861 -0 0.00266409 -0 0.00266406)
(0.00266381 -0.00112777 -0 0.00266385 -0 0.00266383)
(0.00266337 -0.00112755 -0 0.00266331 -0 0.00266334)
(0.00266419 -0.00113244 -0 0.00266415 -0 0.00266417)
(0.00256022 -0.0010747 -0 0.00256028 -0 0.00256025)
(0.00256002 -0.00107391 -0 0.00256005 -0 0.00256004)
(0.0025596 -0.00107352 -0 0.00255954 -0 0.00255957)
(0.00256036 -0.00107817 -0 0.00256033 -0 0.00256034)
(0.0024559 -0.00102016 -0 0.00245595 -0 0.00245593)
(0.00245573 -0.00101937 -0 0.00245575 -0 0.00245574)
(0.00245531 -0.00101872 -0 0.00245526 -0 0.00245528)
(0.00245601 -0.00102325 -0 0.00245599 -0 0.002456)
(0.00235124 -0.00096488 -0 0.00235128 -0 0.00235126)
(0.0023511 -0.000964173 -0 0.00235111 -0 0.00235111)
(0.00235069 -0.000963257 -0 0.00235064 -0 0.00235066)
(0.00235132 -0.000967699 -0 0.00235132 -0 0.00235132)
(0.00224646 -0.000908958 -0 0.00224649 -0 0.00224648)
(0.00224636 -0.000908211 -0 0.00224635 -0 0.00224635)
(0.00224593 -0.000907207 -0 0.00224591 -0 0.00224592)
(0.00224651 -0.000911557 -0 0.00224652 -0 0.00224652)
(0.00214182 -0.000852412 -0 0.00214183 -0 0.00214183)
(0.00214174 -0.000851588 -0 0.00214173 -0 0.00214173)
(0.00214131 -0.000850578 -0 0.0021413 -0 0.00214131)
(0.00214185 -0.000854856 -0 0.00214186 -0 0.00214185)
(0.00203764 -0.000795229 -0 0.00203764 -0 0.00203764)
(0.00203756 -0.000794349 -0 0.00203755 -0 0.00203756)
(0.00203714 -0.000793391 -0 0.00203714 -0 0.00203714)
(0.00203764 -0.000797594 -0 0.00203766 -0 0.00203765)
(0.0019343 -0.000737532 -0 0.0019343 -0 0.0019343)
(0.00193422 -0.000736587 -0 0.00193421 -0 0.00193421)
(0.00193381 -0.000735656 -0 0.00193381 -0 0.00193381)
(0.00193429 -0.000739792 -0 0.0019343 -0 0.0019343)
(0.00183229 -0.000679286 -0 0.00183229 -0 0.00183229)
(0.00183219 -0.000678376 -0 0.00183219 -0 0.00183219)
(0.0018318 -0.000677437 -0 0.0018318 -0 0.0018318)
(0.00183226 -0.000681487 -0 0.00183227 -0 0.00183226)
(0.00173216 -0.000620591 -0 0.00173216 -0 0.00173216)
(0.00173206 -0.000619786 -0 0.00173206 -0 0.00173206)
(0.00173168 -0.000618804 -0 0.00173168 -0 0.00173168)
(0.00173213 -0.000622751 -0 0.00173213 -0 0.00173213)
(0.00163465 -0.000561561 -0 0.00163464 -0 0.00163465)
(0.00163455 -0.000560944 -0 0.00163456 -0 0.00163456)
(0.00163417 -0.000559852 -0 0.00163417 -0 0.00163417)
(0.00163462 -0.000563686 -0 0.00163461 -0 0.00163462)
(0.0015406 -0.000502315 -0 0.00154059 -0 0.00154059)
(0.00154052 -0.000501838 -0 0.00154054 -0 0.00154053)
(0.00154013 -0.000500747 -0 0.00154014 -0 0.00154014)
(0.00154059 -0.000504374 -0 0.00154058 -0 0.00154059)
(0.00145105 -0.00044297 -0 0.00145103 -0 0.00145104)
(0.001451 -0.000442518 -0 0.00145101 -0 0.00145101)
(0.00145061 -0.000441641 -0 0.00145062 -0 0.00145062)
(0.00145107 -0.000444829 -0 0.00145106 -0 0.00145106)
(0.00136723 -0.000383635 -0 0.00136721 -0 0.00136722)
(0.00136718 -0.000383051 -0 0.00136719 -0 0.00136719)
(0.00136682 -0.000382607 -0 0.00136684 -0 0.00136683)
(0.00136725 -0.00038516 -0 0.00136724 -0 0.00136724)
(0.00129058 -0.000324563 -0 0.00129056 -0 0.00129057)
(0.00129049 -0.000323754 -0 0.0012905 -0 0.0012905)
(0.00129016 -0.00032362 -0 0.00129018 -0 0.00129017)
(0.00129055 -0.000325626 -0 0.00129053 -0 0.00129054)
(0.00122263 -0.000265243 -0 0.00122261 -0 0.00122262)
(0.00122252 -0.000264769 -0 0.00122253 -0 0.00122253)
(0.00122224 -0.000264753 -0 0.00122225 -0 0.00122224)
(0.00122258 -0.000266322 -0 0.00122257 -0 0.00122257)
(0.0011651 -0.000206272 -0 0.0011651 -0 0.0011651)
(0.001165 -0.000206004 -0 0.00116502 -0 0.00116501)
(0.00116477 -0.000206065 -0 0.00116478 -0 0.00116477)
(0.00116509 -0.000207271 -0 0.00116508 -0 0.00116509)
(0.00111982 -0.000147649 -0 0.00111982 -0 0.00111982)
(0.00111972 -0.000147489 -0 0.00111973 -0 0.00111973)
(0.00111952 -0.000147498 -0 0.00111952 -0 0.00111952)
(0.00111985 -0.000148393 -0 0.00111984 -0 0.00111985)
(0.00108844 -8.89064e-05 -0 0.00108844 -0 0.00108844)
(0.00108831 -8.87919e-05 -0 0.00108833 -0 0.00108832)
(0.00108815 -8.88988e-05 -0 0.00108815 -0 0.00108815)
(0.0010885 -8.94449e-05 -0 0.00108848 -0 0.00108849)
(0.00107227 -2.97812e-05 -0 0.00107228 -0 0.00107228)
(0.00107214 -2.9768e-05 -0 0.00107216 -0 0.00107215)
(0.001072 -2.97813e-05 -0 0.00107199 -0 0.001072)
(0.00107235 -2.99635e-05 -0 0.00107234 -0 0.00107235)
)
;

boundaryField
{
    inlet
    {
        type            cyclic;
    }
    outlet
    {
        type            cyclic;
    }
    fixedWalls-bottom
    {
        type            kqRWallFunction;
        value           nonuniform List<symmTensor> 4((8.87641e-08 -0 -0 8.87641e-08 -0 8.87641e-08) (8.88031e-08 -0 -0 8.88031e-08 -0 8.88031e-08) (8.89036e-08 -0 -0 8.89036e-08 -0 8.89036e-08) (8.8898e-08 -0 -0 8.8898e-08 -0 8.8898e-08));
    }
    fixedWalls-top
    {
        type            symmetry;
    }
    frontAndBack
    {
        type            empty;
    }
}


// ************************************************************************* //
