/*--------------------------------*- C++ -*----------------------------------*\
  =========                 |
  \\      /  F ield         | OpenFOAM: The Open Source CFD Toolbox
   \\    /   O peration     | Website:  https://openfoam.org
    \\  /    A nd           | Version:  10
     \\/     M anipulation  |
\*---------------------------------------------------------------------------*/
FoamFile
{
    format      ascii;
    class       volScalarField;
    location    "2500";
    object      nut;
}
// * * * * * * * * * * * * * * * * * * * * * * * * * * * * * * * * * * * * * //

dimensions      [0 2 -1 0 0 0 0];

internalField   nonuniform List<scalar> 
400
(
1.26111e-09
1.26142e-09
1.26143e-09
1.2609e-09
2.18667e-07
2.18719e-07
2.1872e-07
2.18629e-07
4.24475e-06
4.24575e-06
4.24576e-06
4.24402e-06
2.56028e-05
2.56085e-05
2.56085e-05
2.55985e-05
7.62269e-05
7.62422e-05
7.62415e-05
7.62139e-05
0.000152383
0.000152409
0.000152407
0.000152353
0.000247195
0.000247231
0.000247225
0.000247133
0.00035739
0.000357432
0.000357417
0.000357275
0.000482039
0.000482086
0.000482053
0.000481842
0.000621232
0.000621278
0.000621221
0.000620916
0.000775417
0.000775458
0.000775368
0.000774939
0.000945085
0.000945117
0.00094499
0.000944405
0.00113061
0.00113063
0.00113047
0.0011297
0.00133219
0.0013322
0.00133202
0.00133102
0.0015498
0.0015498
0.0015496
0.00154835
0.00178323
0.0017832
0.00178298
0.00178149
0.00203206
0.00203201
0.00203175
0.00203003
0.00229574
0.00229565
0.00229536
0.00229341
0.00257359
0.00257348
0.00257313
0.00257096
0.00286482
0.00286473
0.00286429
0.00286192
0.0031686
0.00316862
0.00316803
0.00316547
0.00348401
0.00348435
0.0034835
0.00348074
0.00381035
0.00381091
0.00380987
0.00380688
0.00414673
0.00414745
0.00414627
0.00414303
0.00449229
0.00449312
0.00449185
0.00448836
0.00484624
0.00484713
0.0048458
0.00484206
0.00520781
0.00520868
0.00520737
0.00520335
0.00557625
0.00557704
0.00557582
0.00557151
0.00595091
0.00595149
0.00595046
0.00594585
0.00633116
0.00633148
0.00633066
0.00632573
0.0067165
0.0067165
0.00671581
0.00671054
0.00710609
0.00710596
0.00710532
0.00709975
0.00749949
0.00749931
0.00749868
0.00749282
0.00789624
0.00789604
0.0078954
0.00788931
0.00829589
0.00829574
0.00829505
0.00828875
0.00869799
0.00869803
0.00869721
0.00869076
0.00910209
0.00910263
0.00910155
0.00909495
0.00950818
0.00950923
0.00950773
0.00950098
0.00991587
0.00991733
0.00991544
0.00990852
0.0103248
0.0103266
0.0103244
0.0103173
0.0107347
0.0107366
0.0107343
0.010727
0.0111453
0.0111474
0.0111449
0.0111374
0.0115564
0.0115585
0.011556
0.0115482
0.0119677
0.0119698
0.0119673
0.0119593
0.012379
0.0123811
0.0123787
0.0123704
0.0127901
0.012792
0.0127898
0.0127813
0.0132008
0.0132026
0.0132005
0.0131917
0.0136109
0.0136124
0.0136106
0.0136016
0.0140204
0.0140214
0.01402
0.0140107
0.014429
0.0144295
0.0144284
0.0144188
0.0148367
0.0148367
0.0148358
0.0148258
0.0152429
0.0152426
0.0152417
0.0152315
0.0156474
0.015647
0.0156462
0.0156357
0.0160501
0.0160498
0.0160489
0.0160383
0.0164508
0.0164508
0.0164498
0.016439
0.0168491
0.0168499
0.0168486
0.0168377
0.0172455
0.0172471
0.0172452
0.0172342
0.0176397
0.0176419
0.0176395
0.0176283
0.0180313
0.0180341
0.0180312
0.0180198
0.0184203
0.0184234
0.0184201
0.0184085
0.0188063
0.0188097
0.018806
0.0187943
0.0191892
0.0191926
0.0191888
0.019177
0.0195687
0.0195718
0.0195683
0.0195562
0.0199448
0.0199472
0.0199442
0.0199319
0.0203173
0.0203186
0.0203164
0.0203038
0.0206861
0.0206861
0.0206846
0.0206717
0.0210503
0.0210497
0.0210485
0.0210353
0.0214096
0.0214091
0.0214078
0.0213944
0.0217638
0.0217639
0.0217623
0.0217487
0.0221125
0.0221143
0.0221117
0.0220981
0.0224563
0.0224596
0.0224558
0.0224422
0.0227947
0.022799
0.0227944
0.0227807
0.0231275
0.0231321
0.0231272
0.0231133
0.0234541
0.0234588
0.0234538
0.0234399
0.0237743
0.0237787
0.0237739
0.0237599
0.0240879
0.0240913
0.0240874
0.0240732
0.0243946
0.0243962
0.0243938
0.0243794
0.0246945
0.0246942
0.0246926
0.0246781
0.0249858
0.0249849
0.0249837
0.0249689
0.0252684
0.025268
0.0252664
0.0252516
0.0255415
0.0255432
0.0255405
0.0255256
0.0258064
0.0258103
0.0258056
0.0257907
0.0260625
0.0260672
0.0260613
0.0260463
0.0263088
0.0263138
0.0263072
0.0262921
0.0265447
0.0265499
0.0265428
0.0265275
0.0267697
0.0267749
0.0267675
0.0267521
0.0269833
0.0269886
0.026981
0.0269654
0.0271849
0.0271903
0.0271827
0.0271668
0.027374
0.0273796
0.0273721
0.027356
0.02755
0.027556
0.0275485
0.0275322
0.0277123
0.0277189
0.0277114
0.0276949
0.0278607
0.0278674
0.0278603
0.0278435
0.0279946
0.028001
0.0279946
0.0279775
0.0281137
0.0281187
0.0281139
0.0280961
0.0282179
0.0282195
0.0282175
0.0281986
0.0283042
0.0283047
0.0283047
0.0282844
0.0283726
0.0283727
0.0283744
0.0283527
0.0284226
0.0284227
0.0284258
0.0284029
0.0284536
0.0284535
0.0284581
0.028434
0.0284647
0.0284643
0.0284704
0.0284451
)
;

boundaryField
{
    inlet
    {
        type            cyclic;
    }
    outlet
    {
        type            cyclic;
    }
    fixedWalls-bottom
    {
        type            nutkWallFunction;
        Cmu             0.09;
        kappa           0.41;
        E               9.8;
        value           uniform 0;
    }
    fixedWalls-top
    {
        type            symmetry;
    }
    frontAndBack
    {
        type            empty;
    }
}


// ************************************************************************* //
