/*--------------------------------*- C++ -*----------------------------------*\
  =========                 |
  \\      /  F ield         | OpenFOAM: The Open Source CFD Toolbox
   \\    /   O peration     | Website:  https://openfoam.org
    \\  /    A nd           | Version:  10
     \\/     M anipulation  |
\*---------------------------------------------------------------------------*/
FoamFile
{
    format      ascii;
    class       volScalarField;
    location    "2500";
    object      omega;
}
// * * * * * * * * * * * * * * * * * * * * * * * * * * * * * * * * * * * * * //

dimensions      [0 0 -1 0 0 0 0];

internalField   nonuniform List<scalar> 
400
(
2904.36
2904.36
2904.36
2904.36
501.68
501.681
501.681
501.68
178.913
178.913
178.914
178.912
95.6346
95.6343
95.6345
95.6333
63.1126
63.1118
63.1118
63.1111
45.9264
45.9256
45.9255
45.9255
35.2099
35.2095
35.2094
35.2099
27.9393
27.9393
27.9395
27.9402
22.7457
22.746
22.7465
22.7474
18.8983
18.8986
18.8993
18.9004
15.9684
15.9687
15.9695
15.9708
13.6882
13.6885
13.6893
13.6906
11.8821
11.8823
11.883
11.8843
10.4301
10.4303
10.4309
10.4321
9.24773
9.24788
9.24839
9.24947
8.27412
8.27425
8.27465
8.27558
7.46424
7.46436
7.46465
7.46543
6.78433
6.78444
6.78465
6.78526
6.20868
6.20877
6.20892
6.20936
5.71744
5.71751
5.71762
5.7179
5.29515
5.29521
5.29529
5.29541
4.92965
4.92969
4.92974
4.92972
4.61125
4.61127
4.61128
4.61117
4.33219
4.33219
4.33219
4.33198
4.08623
4.08621
4.08618
4.08589
3.86826
3.86823
3.86819
3.86783
3.6741
3.67409
3.67403
3.67361
3.50036
3.50034
3.50027
3.4998
3.34416
3.34414
3.34407
3.34355
3.20314
3.20312
3.20303
3.20248
3.0753
3.07527
3.07518
3.0746
2.95895
2.95892
2.95882
2.95821
2.85267
2.85265
2.85253
2.85191
2.75524
2.75522
2.75511
2.75446
2.66564
2.66562
2.6655
2.66483
2.58296
2.58294
2.58281
2.58214
2.50644
2.50642
2.50629
2.50561
2.43541
2.43538
2.43526
2.43456
2.36929
2.36926
2.36914
2.36844
2.30757
2.30755
2.30742
2.30672
2.24983
2.2498
2.24967
2.24897
2.19566
2.19563
2.1955
2.1948
2.14472
2.1447
2.14457
2.14386
2.09672
2.0967
2.09657
2.09587
2.0514
2.05137
2.05125
2.05054
2.0085
2.00848
2.00835
2.00765
1.96783
1.9678
1.96768
1.96698
1.92919
1.92916
1.92904
1.92835
1.89242
1.89239
1.89227
1.89158
1.85737
1.85734
1.85722
1.85654
1.8239
1.82388
1.82376
1.82308
1.7919
1.79188
1.79175
1.79108
1.76125
1.76123
1.76111
1.76044
1.73186
1.73184
1.73172
1.73106
1.70364
1.70362
1.7035
1.70285
1.67651
1.67649
1.67637
1.67573
1.6504
1.65038
1.65026
1.64962
1.62524
1.62522
1.62511
1.62447
1.60098
1.60096
1.60085
1.60022
1.57756
1.57754
1.57743
1.57681
1.55494
1.55491
1.5548
1.55419
1.53306
1.53304
1.53293
1.53232
1.51189
1.51187
1.51176
1.51116
1.4914
1.49138
1.49127
1.49067
1.47155
1.47152
1.47142
1.47082
1.45231
1.45229
1.45218
1.45159
1.43365
1.43363
1.43353
1.43295
1.41556
1.41554
1.41544
1.41486
1.39801
1.39799
1.39789
1.39732
1.38098
1.38096
1.38086
1.38029
1.36446
1.36444
1.36434
1.36378
1.34843
1.34841
1.3483
1.34775
1.33287
1.33285
1.33275
1.3322
1.31778
1.31776
1.31766
1.31711
1.30314
1.30312
1.30303
1.30248
1.28896
1.28894
1.28884
1.2883
1.27522
1.2752
1.2751
1.27457
1.26191
1.26189
1.26179
1.26127
1.24904
1.24902
1.24893
1.2484
1.2366
1.23659
1.23649
1.23597
1.2246
1.22459
1.22449
1.22397
1.21303
1.21302
1.21292
1.21241
1.2019
1.20189
1.20179
1.20128
1.19122
1.19121
1.1911
1.1906
1.18098
1.18097
1.18087
1.18036
1.17121
1.1712
1.17109
1.17059
1.1619
1.16189
1.16178
1.16128
1.15307
1.15307
1.15295
1.15245
1.14475
1.14474
1.14461
1.14412
1.13693
1.13692
1.13679
1.1363
1.12965
1.12963
1.12949
1.129
1.12292
1.12289
1.12275
1.12226
1.11675
1.11673
1.11659
1.11609
1.11119
1.11117
1.11103
1.11052
1.10625
1.10623
1.10612
1.10559
1.102
1.10197
1.10186
1.10133
1.09845
1.09843
1.09832
1.09778
1.09566
1.09564
1.09552
1.09497
1.09368
1.09366
1.09353
1.09298
1.09256
1.09253
1.09239
1.09184
)
;

boundaryField
{
    inlet
    {
        type            cyclic;
    }
    outlet
    {
        type            cyclic;
    }
    fixedWalls-bottom
    {
        beta1           0.075;
        blended         0;
        type            omegaWallFunction;
        value           uniform 2904.36;
    }
    fixedWalls-top
    {
        type            symmetry;
    }
    frontAndBack
    {
        type            empty;
    }
}


// ************************************************************************* //
