/*--------------------------------*- C++ -*----------------------------------*\
  =========                 |
  \\      /  F ield         | OpenFOAM: The Open Source CFD Toolbox
   \\    /   O peration     | Website:  https://openfoam.org
    \\  /    A nd           | Version:  10
     \\/     M anipulation  |
\*---------------------------------------------------------------------------*/
FoamFile
{
    format      ascii;
    class       volScalarField;
    location    "145";
    object      k;
}
// * * * * * * * * * * * * * * * * * * * * * * * * * * * * * * * * * * * * * //

dimensions      [0 2 -2 0 0 0 0];

internalField   nonuniform List<scalar> 
200
(
2.22045e-16
2.22045e-16
2.22045e-16
2.22045e-16
2.22045e-16
2.22045e-16
2.22045e-16
2.22045e-16
1.30008e-15
1.29522e-15
1.29423e-15
1.29527e-15
4.6247e-15
4.60736e-15
4.60383e-15
4.60752e-15
1.17452e-14
1.17011e-14
1.16922e-14
1.17015e-14
2.4454e-14
2.43621e-14
2.43437e-14
2.43631e-14
4.47295e-14
4.45608e-14
4.45273e-14
4.45627e-14
7.47133e-14
7.44295e-14
7.43743e-14
7.44332e-14
1.16667e-13
1.1622e-13
1.16136e-13
1.16227e-13
1.72906e-13
1.72238e-13
1.72116e-13
1.72251e-13
2.45708e-13
2.44752e-13
2.44585e-13
2.44774e-13
3.37211e-13
3.35892e-13
3.35674e-13
3.35929e-13
4.49323e-13
4.47558e-13
4.47286e-13
4.47618e-13
5.83632e-13
5.81335e-13
5.81013e-13
5.8143e-13
7.4134e-13
7.38422e-13
7.38058e-13
7.38567e-13
9.23187e-13
9.19561e-13
9.19175e-13
9.19775e-13
1.12941e-12
1.12499e-12
1.12461e-12
1.12529e-12
1.35967e-12
1.35438e-12
1.35406e-12
1.35481e-12
1.61308e-12
1.60686e-12
1.60666e-12
1.60743e-12
1.88814e-12
1.88095e-12
1.88096e-12
1.88167e-12
2.18278e-12
2.17463e-12
2.17495e-12
2.17549e-12
2.49439e-12
2.48511e-12
2.48603e-12
2.48648e-12
2.81987e-12
2.80925e-12
2.81127e-12
2.81167e-12
3.15573e-12
3.14353e-12
3.14732e-12
3.14763e-12
3.49812e-12
3.48407e-12
3.49055e-12
3.49064e-12
3.84305e-12
3.82677e-12
3.83719e-12
3.83675e-12
4.18656e-12
4.16735e-12
4.18349e-12
4.18207e-12
4.52479e-12
4.5015e-12
4.52496e-12
4.52161e-12
4.85263e-12
4.82492e-12
4.85669e-12
4.85082e-12
5.16645e-12
5.13411e-12
5.17386e-12
5.16503e-12
5.46243e-12
5.42536e-12
5.47152e-12
5.46022e-12
5.73662e-12
5.69447e-12
5.74434e-12
5.73381e-12
5.98603e-12
5.93816e-12
5.98585e-12
5.98399e-12
6.2075e-12
6.15366e-12
6.20365e-12
6.2069e-12
6.39893e-12
6.33857e-12
6.39251e-12
6.40229e-12
6.55898e-12
6.49094e-12
6.55084e-12
6.57079e-12
6.68723e-12
6.60918e-12
6.67464e-12
6.71563e-12
6.78935e-12
6.69188e-12
6.76206e-12
6.81125e-12
6.86506e-12
6.74063e-12
6.81274e-12
6.85167e-12
6.88132e-12
6.75914e-12
6.82747e-12
6.8664e-12
6.83954e-12
6.7487e-12
6.80803e-12
6.85626e-12
6.78043e-12
6.70638e-12
6.75842e-12
6.78233e-12
6.69757e-12
6.63682e-12
6.68961e-12
6.6934e-12
6.59456e-12
6.54515e-12
6.61328e-12
6.59047e-12
6.47639e-12
6.43692e-12
6.54636e-12
6.4756e-12
6.35049e-12
6.31812e-12
6.44836e-12
6.35843e-12
6.2228e-12
6.19549e-12
6.33709e-12
6.2311e-12
6.0995e-12
6.07574e-12
6.22486e-12
6.10265e-12
5.98751e-12
5.96597e-12
6.12189e-12
5.98674e-12
5.89425e-12
5.87346e-12
6.03885e-12
5.8935e-12
)
;

boundaryField
{
    inlet
    {
        type            cyclic;
    }
    outlet
    {
        type            cyclic;
    }
    fixedWalls-bottom
    {
        type            kqRWallFunction;
        value           uniform 2.22045e-16;
    }
    fixedWalls-top
    {
        type            symmetry;
    }
    frontAndBack
    {
        type            empty;
    }
}


// ************************************************************************* //
