/*--------------------------------*- C++ -*----------------------------------*\
  =========                 |
  \\      /  F ield         | OpenFOAM: The Open Source CFD Toolbox
   \\    /   O peration     | Website:  https://openfoam.org
    \\  /    A nd           | Version:  10
     \\/     M anipulation  |
\*---------------------------------------------------------------------------*/
FoamFile
{
    format      ascii;
    class       volScalarField;
    location    "145";
    object      nut;
}
// * * * * * * * * * * * * * * * * * * * * * * * * * * * * * * * * * * * * * //

dimensions      [0 2 -1 0 0 0 0];

internalField   nonuniform List<scalar> 
200
(
2.94469e-21
2.94469e-21
2.94469e-21
2.94469e-21
1.81124e-20
1.81124e-20
1.81124e-20
1.81124e-20
3.26019e-19
3.24801e-19
3.24553e-19
3.24812e-19
2.53138e-18
2.5219e-18
2.51997e-18
2.52199e-18
1.15781e-17
1.15351e-17
1.15263e-17
1.15355e-17
3.84426e-17
3.8302e-17
3.82735e-17
3.83033e-17
1.03304e-16
1.02931e-16
1.02856e-16
1.02935e-16
2.39432e-16
2.38577e-16
2.38404e-16
2.38585e-16
4.9803e-16
4.96248e-16
4.95896e-16
4.96269e-16
9.54232e-16
9.50777e-16
9.50118e-16
9.50832e-16
1.71366e-15
1.70735e-15
1.70622e-15
1.70749e-15
2.91784e-15
2.90696e-15
2.90514e-15
2.90728e-15
4.74816e-15
4.73034e-15
4.72766e-15
4.73106e-15
7.4285e-15
7.40064e-15
7.39703e-15
7.40217e-15
1.12254e-14
1.11836e-14
1.11793e-14
1.11867e-14
1.64444e-14
1.63841e-14
1.638e-14
1.63901e-14
2.34222e-14
2.33384e-14
2.33365e-14
2.33497e-14
3.25142e-14
3.24015e-14
3.24059e-14
3.24222e-14
4.40766e-14
4.39305e-14
4.3948e-14
4.39668e-14
5.84465e-14
5.82634e-14
5.83052e-14
5.83249e-14
7.59191e-14
7.56975e-14
7.57805e-14
7.57984e-14
9.67265e-14
9.6459e-14
9.66134e-14
9.66371e-14
1.21021e-13
1.20696e-13
1.20971e-13
1.21009e-13
1.48863e-13
1.48465e-13
1.48925e-13
1.48991e-13
1.80218e-13
1.79721e-13
1.80453e-13
1.8057e-13
2.14965e-13
2.14325e-13
2.15443e-13
2.15639e-13
2.52912e-13
2.52062e-13
2.53712e-13
2.54024e-13
2.93816e-13
2.92645e-13
2.94972e-13
2.95412e-13
3.37294e-13
3.35733e-13
3.38848e-13
3.3945e-13
3.83015e-13
3.80994e-13
3.84917e-13
3.85717e-13
4.30596e-13
4.28056e-13
4.3271e-13
4.33786e-13
4.79606e-13
4.76472e-13
4.81683e-13
4.83303e-13
5.29656e-13
5.25823e-13
5.31118e-13
5.33972e-13
5.80303e-13
5.75687e-13
5.81476e-13
5.85304e-13
6.3116e-13
6.25625e-13
6.32144e-13
6.37105e-13
6.81873e-13
6.75175e-13
6.82792e-13
6.89274e-13
7.32129e-13
7.23837e-13
7.32764e-13
7.41992e-13
7.8223e-13
7.71118e-13
7.81441e-13
7.92116e-13
8.31782e-13
8.16935e-13
8.28118e-13
8.38205e-13
8.76124e-13
8.61026e-13
8.7232e-13
8.83082e-13
9.14491e-13
9.02892e-13
9.13628e-13
9.26305e-13
9.51273e-13
9.41442e-13
9.51746e-13
9.61689e-13
9.84859e-13
9.76486e-13
9.8727e-13
9.9491e-13
1.01465e-12
1.00797e-12
1.02087e-12
1.02532e-12
1.03959e-12
1.03568e-12
1.05435e-12
1.0521e-12
1.06224e-12
1.05689e-12
1.08142e-12
1.07536e-12
1.07886e-12
1.0753e-12
1.10045e-12
1.09283e-12
1.08994e-12
1.08695e-12
1.11425e-12
1.10375e-12
1.09494e-12
1.09245e-12
1.12224e-12
1.10874e-12
1.09319e-12
1.09109e-12
1.12378e-12
1.10786e-12
)
;

boundaryField
{
    inlet
    {
        type            cyclic;
    }
    outlet
    {
        type            cyclic;
    }
    fixedWalls-bottom
    {
        type            nutkWallFunction;
        Cmu             0.09;
        kappa           0.41;
        E               9.8;
        value           uniform 0;
    }
    fixedWalls-top
    {
        type            symmetry;
    }
    frontAndBack
    {
        type            empty;
    }
}


// ************************************************************************* //
