/*--------------------------------*- C++ -*----------------------------------*\
  =========                 |
  \\      /  F ield         | OpenFOAM: The Open Source CFD Toolbox
   \\    /   O peration     | Website:  https://openfoam.org
    \\  /    A nd           | Version:  10
     \\/     M anipulation  |
\*---------------------------------------------------------------------------*/
FoamFile
{
    format      ascii;
    class       volScalarField;
    location    "145";
    object      omega;
}
// * * * * * * * * * * * * * * * * * * * * * * * * * * * * * * * * * * * * * //

dimensions      [0 0 -1 0 0 0 0];

internalField   nonuniform List<scalar> 
200
(
75405.1
75405.1
75405.1
75405.1
12259.3
12259.3
12259.3
12259.3
3987.74
3987.74
3987.74
3987.74
1826.95
1826.94
1826.94
1826.94
1014.43
1014.39
1014.39
1014.4
636.118
636.054
636.045
636.057
432.99
432.917
432.91
432.921
312.044
311.973
311.968
311.978
234.257
234.198
234.194
234.202
181.199
181.155
181.152
181.158
143.382
143.351
143.349
143.353
115.569
115.547
115.545
115.547
94.631
94.6143
94.6106
94.6125
78.5666
78.552
78.5468
78.5486
66.0414
66.0272
66.02
66.0219
56.1401
56.1252
56.1156
56.1176
48.2194
48.2033
48.1909
48.193
41.8178
41.7999
41.7844
41.7864
36.5971
36.5773
36.5582
36.5601
32.3054
32.2836
32.2606
32.2619
28.7514
28.7279
28.7007
28.7009
25.788
25.7633
25.7317
25.7301
23.3007
23.2753
23.2393
23.2353
21.1989
21.1736
21.1337
21.1263
19.4105
19.386
19.3432
19.3312
17.8775
17.855
17.8107
17.7924
16.5534
16.533
16.4891
16.4633
15.4001
15.3821
15.3403
15.3061
14.3869
14.3713
14.333
14.2902
13.4889
13.4756
13.4415
13.3907
12.6857
12.6744
12.6448
12.5874
11.9611
11.9513
11.9255
11.8638
11.3017
11.2931
11.2703
11.2066
10.697
10.6892
10.6688
10.6046
10.1384
10.1316
10.1124
10.049
9.61907
9.61371
9.5942
9.53292
9.13395
9.13076
9.10885
9.05082
8.67947
8.67816
8.65332
8.5988
8.25344
8.25112
8.22677
8.17421
7.85427
7.8501
7.82679
7.77549
7.47907
7.47453
7.45164
7.40173
7.12774
7.12352
7.10108
7.05252
6.80054
6.79663
6.77587
6.72764
6.49931
6.49338
6.4781
6.4277
6.22975
6.21514
6.20893
6.1549
5.97842
5.97802
5.96287
5.91283
5.76795
5.76163
5.75861
5.7018
5.59619
5.5897
5.58657
5.52904
5.46836
5.46107
5.45506
5.3996
5.3918
5.38313
5.3737
5.3197
)
;

boundaryField
{
    inlet
    {
        type            cyclic;
    }
    outlet
    {
        type            cyclic;
    }
    fixedWalls-bottom
    {
        beta1           0.075;
        blended         0;
        type            omegaWallFunction;
        value           nonuniform List<scalar> 4(75405.1 75405.1 75405.1 75405.1);
    }
    fixedWalls-top
    {
        type            symmetry;
    }
    frontAndBack
    {
        type            empty;
    }
}


// ************************************************************************* //
