/*--------------------------------*- C++ -*----------------------------------*\
  =========                 |
  \\      /  F ield         | OpenFOAM: The Open Source CFD Toolbox
   \\    /   O peration     | Website:  https://openfoam.org
    \\  /    A nd           | Version:  10
     \\/     M anipulation  |
\*---------------------------------------------------------------------------*/
FoamFile
{
    format      ascii;
    class       volScalarField;
    location    "145";
    object      p;
}
// * * * * * * * * * * * * * * * * * * * * * * * * * * * * * * * * * * * * * //

dimensions      [0 2 -2 0 0 0 0];

internalField   nonuniform List<scalar> 
200
(
-3.27539e-10
6.01616e-07
-5.89396e-07
-1.19005e-06
-2.17846e-09
6.00233e-07
-5.87514e-07
-1.18862e-06
-4.26997e-09
5.98576e-07
-5.85505e-07
-1.18695e-06
-6.43344e-09
5.97457e-07
-5.83565e-07
-1.18581e-06
-8.5268e-09
5.96665e-07
-5.81698e-07
-1.185e-06
-1.06345e-08
5.96344e-07
-5.79815e-07
-1.18464e-06
-1.26513e-08
5.96244e-07
-5.77999e-07
-1.18451e-06
-1.4628e-08
5.96578e-07
-5.76205e-07
-1.18479e-06
-1.64671e-08
5.97067e-07
-5.74531e-07
-1.18524e-06
-1.82308e-08
5.97916e-07
-5.72922e-07
-1.18603e-06
-1.98189e-08
5.98807e-07
-5.71475e-07
-1.18689e-06
-2.12935e-08
5.99916e-07
-5.70136e-07
-1.18793e-06
-2.25498e-08
6.00885e-07
-5.69e-07
-1.18887e-06
-2.3653e-08
6.01847e-07
-5.68016e-07
-1.18977e-06
-2.44952e-08
6.02399e-07
-5.67275e-07
-1.1903e-06
-2.51441e-08
6.02613e-07
-5.66728e-07
-1.19046e-06
-2.54941e-08
6.02034e-07
-5.66459e-07
-1.18986e-06
-2.56215e-08
6.00666e-07
-5.6642e-07
-1.18844e-06
-2.54223e-08
5.97995e-07
-5.66682e-07
-1.18575e-06
-2.49824e-08
5.93949e-07
-5.67194e-07
-1.18165e-06
-2.4203e-08
5.87954e-07
-5.68015e-07
-1.17565e-06
-2.31881e-08
5.79857e-07
-5.69089e-07
-1.16751e-06
-2.18415e-08
5.69025e-07
-5.70458e-07
-1.15668e-06
-2.02862e-08
5.5523e-07
-5.72057e-07
-1.14284e-06
-1.84296e-08
5.37791e-07
-5.73911e-07
-1.12542e-06
-1.6419e-08
5.16416e-07
-5.7595e-07
-1.104e-06
-1.41606e-08
4.90396e-07
-5.78183e-07
-1.078e-06
-1.18206e-08
4.59408e-07
-5.80536e-07
-1.04698e-06
-9.30386e-09
4.22748e-07
-5.83002e-07
-1.01035e-06
-6.78767e-09
3.80095e-07
-5.85518e-07
-9.67672e-07
-4.17242e-09
3.30816e-07
-5.88062e-07
-9.1843e-07
-1.63453e-09
2.74662e-07
-5.90589e-07
-8.62248e-07
9.32335e-10
2.11146e-07
-5.93074e-07
-7.98771e-07
3.37354e-09
1.40151e-07
-5.95496e-07
-7.2775e-07
5.79904e-09
6.14593e-08
-5.97838e-07
-6.49094e-07
8.08892e-09
-2.48027e-08
-6.00108e-07
-5.62805e-07
1.03576e-08
-1.18462e-07
-6.02302e-07
-4.69172e-07
1.25359e-08
-2.19031e-07
-6.04466e-07
-3.68575e-07
1.47367e-08
-3.25801e-07
-6.06609e-07
-2.61823e-07
1.69338e-08
-4.37762e-07
-6.0881e-07
-1.49828e-07
1.92355e-08
-5.53526e-07
-6.11082e-07
-3.40716e-08
2.16396e-08
-6.71383e-07
-6.13514e-07
8.38204e-08
2.42169e-08
-7.89129e-07
-6.16093e-07
2.01565e-07
2.69541e-08
-9.04218e-07
-6.18886e-07
3.1669e-07
2.99086e-08
-1.01358e-06
-6.21882e-07
4.2606e-07
3.30929e-08
-1.11355e-06
-6.25135e-07
5.26056e-07
3.63602e-08
-1.19917e-06
-6.28462e-07
6.11686e-07
3.89388e-08
-1.26384e-06
-6.31087e-07
6.76353e-07
3.96156e-08
-1.30262e-06
-6.31763e-07
7.1509e-07
3.80757e-08
-1.32652e-06
-6.30217e-07
7.38952e-07
)
;

boundaryField
{
    inlet
    {
        type            cyclic;
    }
    outlet
    {
        type            cyclic;
    }
    fixedWalls-bottom
    {
        type            zeroGradient;
    }
    fixedWalls-top
    {
        type            symmetry;
    }
    frontAndBack
    {
        type            empty;
    }
}


// ************************************************************************* //
