/*--------------------------------*- C++ -*----------------------------------*\
  =========                 |
  \\      /  F ield         | OpenFOAM: The Open Source CFD Toolbox
   \\    /   O peration     | Website:  https://openfoam.org
    \\  /    A nd           | Version:  10
     \\/     M anipulation  |
\*---------------------------------------------------------------------------*/
FoamFile
{
    format      ascii;
    class       surfaceScalarField;
    location    "145";
    object      phi;
}
// * * * * * * * * * * * * * * * * * * * * * * * * * * * * * * * * * * * * * //

dimensions      [0 3 -1 0 0 0 0];

internalField   nonuniform List<scalar> 
346
(
0.000255428
-6.06365e-11
0.000255428
-5.53793e-10
0.000255428
4.1327e-10
5.58689e-10
0.000790909
-1.42962e-09
0.000790911
-2.03837e-09
0.000790909
1.69124e-09
2.06265e-09
0.00136716
-3.71356e-09
0.00136716
-4.26083e-09
0.00136716
3.93979e-09
4.29735e-09
0.00198633
-6.99361e-09
0.00198633
-7.14133e-09
0.00198633
7.15009e-09
7.1976e-09
0.00265066
-1.12831e-08
0.00265067
-1.05078e-08
0.00265066
1.14227e-08
1.05718e-08
0.00336247
-1.66514e-08
0.00336248
-1.42501e-08
0.00336247
1.67364e-08
1.4334e-08
0.00412415
-2.31397e-08
0.00412415
-1.81411e-08
0.00412415
2.32192e-08
1.8229e-08
0.00493816
-3.08177e-08
0.00493816
-2.20339e-08
0.00493815
3.0852e-08
2.21426e-08
0.00580702
-3.97513e-08
0.00580703
-2.5658e-08
0.00580702
3.9787e-08
2.57664e-08
0.00673336
-5.00159e-08
0.00673336
-2.88391e-08
0.00673335
5.00118e-08
2.89693e-08
0.00771982
-6.16982e-08
0.00771982
-3.12797e-08
0.00771981
6.16999e-08
3.14065e-08
0.00876915
-7.48839e-08
0.00876915
-3.27921e-08
0.00876913
7.48487e-08
3.29425e-08
0.00988411
-8.96744e-08
0.00988411
-3.3074e-08
0.0098841
8.96483e-08
3.32168e-08
0.0110675
-1.06165e-07
0.0110675
-3.19464e-08
0.0110675
1.06103e-07
3.21147e-08
0.0123223
-1.24463e-07
0.0123223
-2.91274e-08
0.0123223
1.24412e-07
2.92851e-08
0.0136513
-1.44664e-07
0.0136513
-2.44732e-08
0.0136513
1.44577e-07
2.46591e-08
0.0150574
-1.66864e-07
0.0150574
-1.77499e-08
0.0150574
1.6679e-07
1.79208e-08
0.0165436
-1.9115e-07
0.0165436
-8.87766e-09
0.0165436
1.91039e-07
9.07946e-09
0.0181128
-2.17582e-07
0.0181128
2.30326e-09
0.0181128
2.17488e-07
-2.11989e-09
0.0197678
-2.46217e-07
0.0197678
1.57822e-08
0.0197678
2.46082e-07
-1.55647e-08
0.0215115
-2.77047e-07
0.0215115
3.16217e-08
0.0215114
2.76934e-07
-3.14285e-08
0.0233466
-3.10076e-07
0.0233465
4.96997e-08
0.0233465
3.0992e-07
-4.94696e-08
0.0252757
-3.45199e-07
0.0252757
6.99669e-08
0.0252757
3.45069e-07
-6.97662e-08
0.0273015
-3.82332e-07
0.0273015
9.21776e-08
0.0273014
3.82157e-07
-9.19371e-08
0.0294262
-4.21236e-07
0.0294262
1.16165e-07
0.0294262
4.21094e-07
-1.15962e-07
0.0316521
-4.61717e-07
0.0316521
1.41559e-07
0.031652
4.61529e-07
-1.41314e-07
0.033981
-5.03373e-07
0.033981
1.68082e-07
0.0339809
5.03226e-07
-1.67882e-07
0.0364146
-5.45869e-07
0.0364145
1.9525e-07
0.0364145
5.45677e-07
-1.95008e-07
0.0389541
-5.88618e-07
0.0389541
2.22692e-07
0.038954
5.88478e-07
-2.22507e-07
0.0416004
-6.31129e-07
0.0416004
2.49834e-07
0.0416003
6.30945e-07
-2.49606e-07
0.044354
-6.72615e-07
0.0443539
2.76238e-07
0.0443539
6.72493e-07
-2.76076e-07
0.0472146
-7.12417e-07
0.0472145
3.01267e-07
0.0472145
7.12253e-07
-3.01065e-07
0.0501814
-7.49554e-07
0.0501814
3.24456e-07
0.0501814
7.49461e-07
-3.2433e-07
0.053253
-7.83187e-07
0.053253
3.45146e-07
0.053253
7.83055e-07
-3.44981e-07
0.056427
-8.12161e-07
0.056427
3.62881e-07
0.056427
8.12103e-07
-3.62796e-07
0.0597
-8.35462e-07
0.0597
3.77012e-07
0.0597
8.35364e-07
-3.76886e-07
0.0630677
-8.5179e-07
0.0630677
3.87123e-07
0.0630677
8.51769e-07
-3.87079e-07
0.0665244
-8.59985e-07
0.0665244
3.92611e-07
0.0665244
8.59918e-07
-3.92521e-07
0.0700631
-8.58639e-07
0.0700631
3.931e-07
0.0700631
8.5866e-07
-3.93102e-07
0.0736752
-8.46526e-07
0.0736752
3.88031e-07
0.0736753
8.46495e-07
-3.87983e-07
0.0773504
-8.2223e-07
0.0773504
3.77038e-07
0.0773505
8.22282e-07
-3.77076e-07
0.0810763
-7.84602e-07
0.0810764
3.59574e-07
0.0810764
7.84602e-07
-3.59561e-07
0.0848385
-7.32472e-07
0.0848385
3.35232e-07
0.0848385
7.32543e-07
-3.35292e-07
0.0886197
-6.65141e-07
0.0886198
3.0347e-07
0.0886198
6.65175e-07
-3.03495e-07
0.0924004
-5.8228e-07
0.0924004
2.63941e-07
0.0924005
5.82339e-07
-2.63993e-07
0.0961574
-4.84432e-07
0.0961575
2.16507e-07
0.0961576
4.84464e-07
-2.16534e-07
0.0998646
-3.73195e-07
0.0998646
1.61923e-07
0.0998647
3.73209e-07
-1.61934e-07
0.103491
-2.51708e-07
0.103492
1.03216e-07
0.103492
2.51682e-07
-1.03188e-07
0.107004
-1.2554e-07
0.107004
5.00357e-08
0.107004
1.25518e-07
-5.00136e-08
0.110362
0.110362
0.110362
)
;

boundaryField
{
    inlet
    {
        type            cyclic;
        value           nonuniform List<scalar> 
50
(
-0.110362
-0.107004
-0.103492
-0.0998647
-0.0961575
-0.0924005
-0.0886198
-0.0848385
-0.0810764
-0.0773504
-0.0736752
-0.0700631
-0.0665244
-0.0630677
-0.0597
-0.056427
-0.053253
-0.0501814
-0.0472145
-0.0443539
-0.0416004
-0.038954
-0.0364145
-0.0339809
-0.031652
-0.0294262
-0.0273015
-0.0252757
-0.0233465
-0.0215114
-0.0197678
-0.0181128
-0.0165436
-0.0150574
-0.0136513
-0.0123223
-0.0110675
-0.0098841
-0.00876913
-0.00771981
-0.00673335
-0.00580701
-0.00493815
-0.00412414
-0.00336247
-0.00265066
-0.00198633
-0.00136715
-0.000790908
-0.000255427
)
;
    }
    outlet
    {
        type            cyclic;
        value           nonuniform List<scalar> 
50
(
0.110362
0.107004
0.103492
0.0998647
0.0961575
0.0924005
0.0886198
0.0848385
0.0810764
0.0773504
0.0736752
0.0700631
0.0665244
0.0630677
0.0597
0.056427
0.053253
0.0501814
0.0472145
0.0443539
0.0416004
0.038954
0.0364145
0.0339809
0.031652
0.0294262
0.0273015
0.0252757
0.0233465
0.0215114
0.0197678
0.0181128
0.0165436
0.0150574
0.0136513
0.0123223
0.0110675
0.0098841
0.00876913
0.00771981
0.00673335
0.00580701
0.00493815
0.00412414
0.00336247
0.00265066
0.00198633
0.00136715
0.000790908
0.000255427
)
;
    }
    fixedWalls-bottom
    {
        type            calculated;
        value           uniform 0;
    }
    fixedWalls-top
    {
        type            symmetry;
        value           uniform 0;
    }
    frontAndBack
    {
        type            empty;
        value           nonuniform List<scalar> 0();
    }
}


// ************************************************************************* //
