/*--------------------------------*- C++ -*----------------------------------*\
  =========                 |
  \\      /  F ield         | OpenFOAM: The Open Source CFD Toolbox
   \\    /   O peration     | Website:  https://openfoam.org
    \\  /    A nd           | Version:  10
     \\/     M anipulation  |
\*---------------------------------------------------------------------------*/
FoamFile
{
    format      ascii;
    class       volSymmTensorField;
    location    "145";
    object      R;
}
// * * * * * * * * * * * * * * * * * * * * * * * * * * * * * * * * * * * * * //

dimensions      [0 2 -2 0 0 0 0];

internalField   nonuniform List<symmTensor> 
200
(
(1.4803e-16 -8.82117e-21 -0 1.4803e-16 -0 1.4803e-16)
(1.4803e-16 -8.82118e-21 -0 1.4803e-16 -0 1.4803e-16)
(1.4803e-16 -8.8212e-21 -0 1.4803e-16 -0 1.4803e-16)
(1.4803e-16 -8.82115e-21 -0 1.4803e-16 -0 1.4803e-16)
(1.4803e-16 -5.37488e-20 -0 1.4803e-16 -0 1.4803e-16)
(1.4803e-16 -5.37489e-20 -0 1.4803e-16 -0 1.4803e-16)
(1.4803e-16 -5.3749e-20 -0 1.4803e-16 -0 1.4803e-16)
(1.4803e-16 -5.37487e-20 -0 1.4803e-16 -0 1.4803e-16)
(8.66718e-16 -9.5802e-19 -0 8.66718e-16 -0 8.66718e-16)
(8.6348e-16 -9.54442e-19 -0 8.6348e-16 -0 8.6348e-16)
(8.62821e-16 -9.53715e-19 -0 8.62821e-16 -0 8.62821e-16)
(8.6351e-16 -9.54472e-19 -0 8.6351e-16 -0 8.6351e-16)
(3.08314e-15 -7.36296e-18 -0 3.08314e-15 -0 3.08314e-15)
(3.07157e-15 -7.33538e-18 -0 3.07157e-15 -0 3.07157e-15)
(3.06922e-15 -7.32978e-18 -0 3.06922e-15 -0 3.06922e-15)
(3.07168e-15 -7.33561e-18 -0 3.07168e-15 -0 3.07168e-15)
(7.83011e-15 -3.33202e-17 -0 7.83011e-15 -0 7.83011e-15)
(7.80074e-15 -3.31965e-17 -0 7.80074e-15 -0 7.80074e-15)
(7.79479e-15 -3.31714e-17 -0 7.79479e-15 -0 7.79479e-15)
(7.80102e-15 -3.31975e-17 -0 7.80102e-15 -0 7.80102e-15)
(1.63027e-14 -1.09413e-16 -0 1.63027e-14 -0 1.63027e-14)
(1.62414e-14 -1.09013e-16 -0 1.62414e-14 -0 1.62414e-14)
(1.62291e-14 -1.08932e-16 -0 1.62291e-14 -0 1.62291e-14)
(1.62421e-14 -1.09016e-16 -0 1.62421e-14 -0 1.62421e-14)
(2.98197e-14 -2.9064e-16 -0 2.98197e-14 -0 2.98197e-14)
(2.97072e-14 -2.89592e-16 -0 2.97072e-14 -0 2.97072e-14)
(2.96848e-14 -2.89379e-16 -0 2.96848e-14 -0 2.96848e-14)
(2.97084e-14 -2.896e-16 -0 2.97084e-14 -0 2.97084e-14)
(4.98089e-14 -6.65568e-16 -0 4.98089e-14 -0 4.98089e-14)
(4.96197e-14 -6.63189e-16 -0 4.96197e-14 -0 4.96197e-14)
(4.95829e-14 -6.62709e-16 -0 4.95829e-14 -0 4.95829e-14)
(4.96222e-14 -6.6321e-16 -0 4.96222e-14 -0 4.96222e-14)
(7.77781e-14 -1.36714e-15 -0 7.77781e-14 -0 7.77781e-14)
(7.74803e-14 -1.36225e-15 -0 7.74803e-14 -0 7.74803e-14)
(7.74239e-14 -1.36128e-15 -0 7.74239e-14 -0 7.74239e-14)
(7.74849e-14 -1.3623e-15 -0 7.74849e-14 -0 7.74849e-14)
(1.15271e-13 -2.5854e-15 -0 1.15271e-13 -0 1.15271e-13)
(1.14826e-13 -2.57603e-15 -0 1.14826e-13 -0 1.14826e-13)
(1.14744e-13 -2.57425e-15 -0 1.14744e-13 -0 1.14744e-13)
(1.14834e-13 -2.57617e-15 -0 1.14834e-13 -0 1.14834e-13)
(1.63805e-13 -4.58003e-15 -0 1.63805e-13 -0 1.63805e-13)
(1.63168e-13 -4.56316e-15 -0 1.63168e-13 -0 1.63168e-13)
(1.63056e-13 -4.56012e-15 -0 1.63056e-13 -0 1.63056e-13)
(1.63182e-13 -4.56351e-15 -0 1.63182e-13 -0 1.63182e-13)
(2.24807e-13 -7.68803e-15 -0 2.24808e-13 -0 2.24808e-13)
(2.23928e-13 -7.65935e-15 -0 2.23928e-13 -0 2.23928e-13)
(2.23783e-13 -7.65455e-15 -0 2.23783e-13 -0 2.23783e-13)
(2.23952e-13 -7.66018e-15 -0 2.23952e-13 -0 2.23952e-13)
(2.99548e-13 -1.23258e-14 -0 2.99549e-13 -0 2.99548e-13)
(2.98372e-13 -1.22796e-14 -0 2.98372e-13 -0 2.98372e-13)
(2.98191e-13 -1.22726e-14 -0 2.98191e-13 -0 2.98191e-13)
(2.98412e-13 -1.22814e-14 -0 2.98412e-13 -0 2.98412e-13)
(3.89088e-13 -1.89864e-14 -0 3.89088e-13 -0 3.89088e-13)
(3.87557e-13 -1.89152e-14 -0 3.87557e-13 -0 3.87557e-13)
(3.87342e-13 -1.89059e-14 -0 3.87342e-13 -0 3.87342e-13)
(3.8762e-13 -1.8919e-14 -0 3.8762e-13 -0 3.8762e-13)
(4.94226e-13 -2.82285e-14 -0 4.94226e-13 -0 4.94226e-13)
(4.92281e-13 -2.81234e-14 -0 4.92281e-13 -0 4.92281e-13)
(4.92039e-13 -2.81126e-14 -0 4.92039e-13 -0 4.92039e-13)
(4.92378e-13 -2.81311e-14 -0 4.92378e-13 -0 4.92378e-13)
(6.15458e-13 -4.06562e-14 -0 6.15458e-13 -0 6.15458e-13)
(6.1304e-13 -4.05071e-14 -0 6.1304e-13 -0 6.1304e-13)
(6.12783e-13 -4.04969e-14 -0 6.12783e-13 -0 6.12783e-13)
(6.13183e-13 -4.05219e-14 -0 6.13184e-13 -0 6.13184e-13)
(7.52937e-13 -5.68876e-14 -0 7.52937e-13 -0 7.52937e-13)
(7.4999e-13 -5.66838e-14 -0 7.4999e-13 -0 7.4999e-13)
(7.4974e-13 -5.66793e-14 -0 7.4974e-13 -0 7.4974e-13)
(7.50196e-13 -5.67113e-14 -0 7.50196e-13 -0 7.50196e-13)
(9.06447e-13 -7.75137e-14 -0 9.06447e-13 -0 9.06447e-13)
(9.02921e-13 -7.72451e-14 -0 9.02921e-13 -0 9.02921e-13)
(9.02708e-13 -7.72554e-14 -0 9.02708e-13 -0 9.02708e-13)
(9.03205e-13 -7.72941e-14 -0 9.03205e-13 -0 9.03205e-13)
(1.07539e-12 -1.03049e-13 -0 1.07539e-12 -0 1.07539e-12)
(1.07124e-12 -1.02707e-13 -0 1.07124e-12 -0 1.07124e-12)
(1.07111e-12 -1.02748e-13 -0 1.07111e-12 -0 1.07111e-12)
(1.07162e-12 -1.02791e-13 -0 1.07162e-12 -0 1.07162e-12)
(1.25876e-12 -1.33878e-13 -0 1.25876e-12 -0 1.25876e-12)
(1.25397e-12 -1.33458e-13 -0 1.25397e-12 -0 1.25397e-12)
(1.25397e-12 -1.33553e-13 -0 1.25397e-12 -0 1.25397e-12)
(1.25445e-12 -1.33598e-13 -0 1.25445e-12 -0 1.25445e-12)
(1.45518e-12 -1.70205e-13 -0 1.45519e-12 -0 1.45519e-12)
(1.44976e-12 -1.69708e-13 -0 1.44976e-12 -0 1.44976e-12)
(1.44997e-12 -1.69894e-13 -0 1.44997e-12 -0 1.44997e-12)
(1.45032e-12 -1.69934e-13 -0 1.45032e-12 -0 1.45032e-12)
(1.66293e-12 -2.12015e-13 -0 1.66293e-12 -0 1.66293e-12)
(1.65674e-12 -2.11428e-13 -0 1.65674e-12 -0 1.65674e-12)
(1.65735e-12 -2.11766e-13 -0 1.65735e-12 -0 1.65735e-12)
(1.65765e-12 -2.11818e-13 -0 1.65765e-12 -0 1.65765e-12)
(1.87992e-12 -2.59042e-13 -0 1.87992e-12 -0 1.87992e-12)
(1.87283e-12 -2.58347e-13 -0 1.87283e-12 -0 1.87283e-12)
(1.87418e-12 -2.58934e-13 -0 1.87418e-12 -0 1.87418e-12)
(1.87445e-12 -2.59015e-13 -0 1.87445e-12 -0 1.87445e-12)
(2.10382e-12 -3.10769e-13 -0 2.10382e-12 -0 2.10382e-12)
(2.09568e-12 -3.09938e-13 -0 2.09568e-12 -0 2.09568e-12)
(2.09821e-12 -3.10897e-13 -0 2.09821e-12 -0 2.09821e-12)
(2.09842e-12 -3.11036e-13 -0 2.09842e-12 -0 2.09842e-12)
(2.33208e-12 -3.66437e-13 -0 2.33208e-12 -0 2.33208e-12)
(2.32271e-12 -3.65426e-13 -0 2.32271e-12 -0 2.32271e-12)
(2.32703e-12 -3.66914e-13 -0 2.32703e-12 -0 2.32703e-12)
(2.32709e-12 -3.67151e-13 -0 2.32709e-12 -0 2.32709e-12)
(2.56203e-12 -4.25085e-13 -0 2.56203e-12 -0 2.56203e-12)
(2.55118e-12 -4.2382e-13 -0 2.55118e-12 -0 2.55118e-12)
(2.55813e-12 -4.2603e-13 -0 2.55813e-12 -0 2.55813e-12)
(2.55783e-12 -4.26419e-13 -0 2.55783e-12 -0 2.55783e-12)
(2.79104e-12 -4.85613e-13 -0 2.79104e-12 -0 2.79104e-12)
(2.77823e-12 -4.8398e-13 -0 2.77823e-12 -0 2.77823e-12)
(2.78899e-12 -4.87148e-13 -0 2.78899e-12 -0 2.78899e-12)
(2.78805e-12 -4.87748e-13 -0 2.78805e-12 -0 2.78805e-12)
(3.01652e-12 -5.46823e-13 -0 3.01653e-12 -0 3.01653e-12)
(3.001e-12 -5.44646e-13 -0 3.001e-12 -0 3.001e-12)
(3.01664e-12 -5.48975e-13 -0 3.01664e-12 -0 3.01664e-12)
(3.01441e-12 -5.49795e-13 -0 3.01441e-12 -0 3.01441e-12)
(3.23508e-12 -6.07299e-13 -0 3.23509e-12 -0 3.23508e-12)
(3.21661e-12 -6.04489e-13 -0 3.21661e-12 -0 3.21661e-12)
(3.23779e-12 -6.10096e-13 -0 3.23779e-12 -0 3.23779e-12)
(3.23388e-12 -6.11181e-13 -0 3.23388e-12 -0 3.23388e-12)
(3.4443e-12 -6.65761e-13 -0 3.4443e-12 -0 3.4443e-12)
(3.42274e-12 -6.6225e-13 -0 3.42274e-12 -0 3.42274e-12)
(3.44924e-12 -6.69069e-13 -0 3.44924e-12 -0 3.44924e-12)
(3.44335e-12 -6.7046e-13 -0 3.44335e-12 -0 3.44335e-12)
(3.64162e-12 -7.20901e-13 -0 3.64162e-12 -0 3.64162e-12)
(3.61691e-12 -7.1665e-13 -0 3.6169e-12 -0 3.6169e-12)
(3.64768e-12 -7.24443e-13 -0 3.64768e-12 -0 3.64768e-12)
(3.64015e-12 -7.26245e-13 -0 3.64015e-12 -0 3.64015e-12)
(3.82441e-12 -7.71398e-13 -0 3.82441e-12 -0 3.82441e-12)
(3.79632e-12 -7.66359e-13 -0 3.79631e-12 -0 3.79631e-12)
(3.82956e-12 -7.74741e-13 -0 3.82956e-12 -0 3.82956e-12)
(3.82254e-12 -7.77348e-13 -0 3.82254e-12 -0 3.82254e-12)
(3.99069e-12 -8.1608e-13 -0 3.99069e-12 -0 3.99069e-12)
(3.95878e-12 -8.10177e-13 -0 3.95878e-12 -0 3.95878e-12)
(3.99057e-12 -8.18334e-13 -0 3.99057e-12 -0 3.99057e-12)
(3.98932e-12 -8.22735e-13 -0 3.98933e-12 -0 3.98932e-12)
(4.13833e-12 -8.53781e-13 -0 4.13834e-12 -0 4.13833e-12)
(4.10244e-12 -8.46992e-13 -0 4.10244e-12 -0 4.10244e-12)
(4.13577e-12 -8.5551e-13 -0 4.13577e-12 -0 4.13577e-12)
(4.13793e-12 -8.61144e-13 -0 4.13793e-12 -0 4.13793e-12)
(4.26595e-12 -8.83513e-13 -0 4.26596e-12 -0 4.26595e-12)
(4.22571e-12 -8.75767e-13 -0 4.22571e-12 -0 4.22571e-12)
(4.26167e-12 -8.84894e-13 -0 4.26167e-12 -0 4.26167e-12)
(4.2682e-12 -8.91843e-13 -0 4.2682e-12 -0 4.2682e-12)
(4.37265e-12 -9.04428e-13 -0 4.37265e-12 -0 4.37265e-12)
(4.32729e-12 -8.95547e-13 -0 4.32729e-12 -0 4.32729e-12)
(4.36723e-12 -9.05652e-13 -0 4.36723e-12 -0 4.36723e-12)
(4.38053e-12 -9.14254e-13 -0 4.38053e-12 -0 4.38053e-12)
(4.45815e-12 -9.15821e-13 -0 4.45815e-12 -0 4.45815e-12)
(4.40612e-12 -9.05451e-13 -0 4.40612e-12 -0 4.40612e-12)
(4.44976e-12 -9.16619e-13 -0 4.44976e-12 -0 4.44976e-12)
(4.47709e-12 -9.28168e-13 -0 4.47709e-12 -0 4.47709e-12)
(4.52623e-12 -9.17792e-13 -0 4.52623e-12 -0 4.52623e-12)
(4.46126e-12 -9.04757e-13 -0 4.46126e-12 -0 4.46126e-12)
(4.50804e-12 -9.1687e-13 -0 4.50804e-12 -0 4.50804e-12)
(4.54083e-12 -9.29402e-13 -0 4.54083e-12 -0 4.54083e-12)
(4.57671e-12 -9.09576e-13 -0 4.57671e-12 -0 4.57671e-12)
(4.49375e-12 -8.93343e-13 -0 4.49375e-12 -0 4.49375e-12)
(4.54183e-12 -9.05574e-13 -0 4.54183e-12 -0 4.54183e-12)
(4.56778e-12 -9.16611e-13 -0 4.56778e-12 -0 4.56778e-12)
(4.58755e-12 -8.86211e-13 -0 4.58755e-12 -0 4.58755e-12)
(4.5061e-12 -8.70942e-13 -0 4.5061e-12 -0 4.5061e-12)
(4.55165e-12 -8.82368e-13 -0 4.55165e-12 -0 4.55165e-12)
(4.5776e-12 -8.93261e-13 -0 4.5776e-12 -0 4.5776e-12)
(4.5597e-12 -8.4791e-13 -0 4.55969e-12 -0 4.55969e-12)
(4.49913e-12 -8.37158e-13 -0 4.49913e-12 -0 4.49913e-12)
(4.53868e-12 -8.47116e-13 -0 4.53869e-12 -0 4.53868e-12)
(4.57084e-12 -8.58877e-13 -0 4.57084e-12 -0 4.57084e-12)
(4.52029e-12 -7.99545e-13 -0 4.52028e-12 -0 4.52028e-12)
(4.47092e-12 -7.91284e-13 -0 4.47092e-12 -0 4.47092e-12)
(4.50561e-12 -7.99948e-13 -0 4.50562e-12 -0 4.50561e-12)
(4.52155e-12 -8.08313e-13 -0 4.52155e-12 -0 4.52155e-12)
(4.46505e-12 -7.39984e-13 -0 4.46505e-12 -0 4.46505e-12)
(4.42454e-12 -7.33696e-13 -0 4.42455e-12 -0 4.42454e-12)
(4.45974e-12 -7.41802e-13 -0 4.45974e-12 -0 4.45974e-12)
(4.46227e-12 -7.47551e-13 -0 4.46227e-12 -0 4.46227e-12)
(4.39637e-12 -6.69371e-13 -0 4.39637e-12 -0 4.39637e-12)
(4.36343e-12 -6.64966e-13 -0 4.36344e-12 -0 4.36344e-12)
(4.40885e-12 -6.73476e-13 -0 4.40886e-12 -0 4.40885e-12)
(4.39365e-12 -6.76423e-13 -0 4.39365e-12 -0 4.39365e-12)
(4.3176e-12 -5.87839e-13 -0 4.31759e-12 -0 4.3176e-12)
(4.29128e-12 -5.85632e-13 -0 4.29129e-12 -0 4.29128e-12)
(4.36423e-12 -5.96187e-13 -0 4.36424e-12 -0 4.36424e-12)
(4.31707e-12 -5.94927e-13 -0 4.31706e-12 -0 4.31706e-12)
(4.23367e-12 -4.97686e-13 -0 4.23366e-12 -0 4.23366e-12)
(4.21207e-12 -4.95185e-13 -0 4.21208e-12 -0 4.21208e-12)
(4.2989e-12 -5.06679e-13 -0 4.29891e-12 -0 4.29891e-12)
(4.23895e-12 -5.03847e-13 -0 4.23895e-12 -0 4.23895e-12)
(4.14854e-12 -3.97934e-13 -0 4.14853e-12 -0 4.14853e-12)
(4.13033e-12 -3.96624e-13 -0 4.13033e-12 -0 4.13033e-12)
(4.22472e-12 -4.05903e-13 -0 4.22473e-12 -0 4.22472e-12)
(4.15407e-12 -4.03095e-13 -0 4.15406e-12 -0 4.15407e-12)
(4.06634e-12 -2.90278e-13 -0 4.06633e-12 -0 4.06634e-12)
(4.05049e-12 -2.89481e-13 -0 4.05049e-12 -0 4.05049e-12)
(4.1499e-12 -2.96752e-13 -0 4.14991e-12 -0 4.1499e-12)
(4.06844e-12 -2.93955e-13 -0 4.06843e-12 -0 4.06843e-12)
(3.99168e-12 -1.76107e-13 -0 3.99166e-12 -0 3.99167e-12)
(3.97731e-12 -1.75705e-13 -0 3.97731e-12 -0 3.97731e-12)
(4.08125e-12 -1.80493e-13 -0 4.08127e-12 -0 4.08126e-12)
(3.99116e-12 -1.78322e-13 -0 3.99116e-12 -0 3.99116e-12)
(3.92951e-12 -5.86682e-14 -0 3.92949e-12 -0 3.9295e-12)
(3.91564e-12 -5.8555e-14 -0 3.91564e-12 -0 3.91564e-12)
(4.02589e-12 -6.03077e-14 -0 4.0259e-12 -0 4.0259e-12)
(3.929e-12 -5.94533e-14 -0 3.929e-12 -0 3.929e-12)
)
;

boundaryField
{
    inlet
    {
        type            cyclic;
    }
    outlet
    {
        type            cyclic;
    }
    fixedWalls-bottom
    {
        type            kqRWallFunction;
        value           uniform (1.4803e-16 -0 -0 1.4803e-16 -0 1.4803e-16);
    }
    fixedWalls-top
    {
        type            symmetry;
    }
    frontAndBack
    {
        type            empty;
    }
}


// ************************************************************************* //
