/*--------------------------------*- C++ -*----------------------------------*\
  =========                 |
  \\      /  F ield         | OpenFOAM: The Open Source CFD Toolbox
   \\    /   O peration     | Website:  https://openfoam.org
    \\  /    A nd           | Version:  10
     \\/     M anipulation  |
\*---------------------------------------------------------------------------*/
FoamFile
{
    format      ascii;
    class       volVectorField;
    location    "145";
    object      U;
}
// * * * * * * * * * * * * * * * * * * * * * * * * * * * * * * * * * * * * * //

dimensions      [0 1 -1 0 0 0 0];

internalField   nonuniform List<vector> 
200
(
(0.0138627 -1.19332e-10 0)
(0.0138627 -1.41719e-10 0)
(0.0138628 4.404e-11 0)
(0.0138627 1.49396e-10 0)
(0.0417273 -3.34046e-10 0)
(0.0417273 -1.12712e-09 0)
(0.0417274 8.69145e-10 0)
(0.0417272 1.13634e-09 0)
(0.0701172 -2.36669e-09 0)
(0.0701172 -2.98735e-09 0)
(0.0701174 2.59281e-09 0)
(0.070117 3.01796e-09 0)
(0.0990308 -5.13058e-09 0)
(0.0990309 -5.56576e-09 0)
(0.0990311 5.31788e-09 0)
(0.0990306 5.61317e-09 0)
(0.128466 -8.90847e-09 0)
(0.128466 -8.73458e-09 0)
(0.128466 9.05718e-09 0)
(0.128465 8.79596e-09 0)
(0.158418 -1.3731e-08 0)
(0.158418 -1.23363e-08 0)
(0.158418 1.38451e-08 0)
(0.158418 1.24111e-08 0)
(0.188883 -1.96521e-08 0)
(0.188883 -1.62023e-08 0)
(0.188883 1.97353e-08 0)
(0.188883 1.62889e-08 0)
(0.219855 -2.67275e-08 0)
(0.219855 -2.01456e-08 0)
(0.219855 2.67853e-08 0)
(0.219854 2.02441e-08 0)
(0.251327 -3.50245e-08 0)
(0.251327 -2.39583e-08 0)
(0.251327 3.50592e-08 0)
(0.251326 2.40671e-08 0)
(0.283289 -4.46133e-08 0)
(0.283289 -2.74151e-08 0)
(0.283289 4.46294e-08 0)
(0.283288 2.75344e-08 0)
(0.315732 -5.55752e-08 0)
(0.315732 -3.02813e-08 0)
(0.315732 5.55736e-08 0)
(0.315731 3.04099e-08 0)
(0.348643 -6.79965e-08 0)
(0.348643 -3.23103e-08 0)
(0.348644 6.79802e-08 0)
(0.348642 3.24488e-08 0)
(0.38201 -8.19712e-08 0)
(0.38201 -3.32586e-08 0)
(0.38201 8.19402e-08 0)
(0.382009 3.34053e-08 0)
(0.415816 -9.75984e-08 0)
(0.415816 -3.28808e-08 0)
(0.415816 9.75547e-08 0)
(0.415815 3.30362e-08 0)
(0.450045 -1.14979e-07 0)
(0.450044 -3.09482e-08 0)
(0.450044 1.14923e-07 0)
(0.450043 3.11114e-08 0)
(0.484675 -1.34217e-07 0)
(0.484675 -2.72427e-08 0)
(0.484675 1.34149e-07 0)
(0.484673 2.74144e-08 0)
(0.519686 -1.55409e-07 0)
(0.519685 -2.15777e-08 0)
(0.519685 1.55328e-07 0)
(0.519684 2.17564e-08 0)
(0.555052 -1.78647e-07 0)
(0.555052 -1.3791e-08 0)
(0.555052 1.78555e-07 0)
(0.55505 1.39771e-08 0)
(0.590747 -2.04006e-07 0)
(0.590746 -3.76545e-09 0)
(0.590746 2.03903e-07 0)
(0.590745 3.95848e-09 0)
(0.62674 -2.31547e-07 0)
(0.626739 8.57843e-09 0)
(0.626739 2.31433e-07 0)
(0.626737 -8.37814e-09 0)
(0.662998 -2.61296e-07 0)
(0.662997 2.32632e-08 0)
(0.662997 2.61171e-07 0)
(0.662995 -2.30572e-08 0)
(0.699484 -2.93251e-07 0)
(0.699484 4.02637e-08 0)
(0.699483 2.93117e-07 0)
(0.699482 -4.00522e-08 0)
(0.736159 -3.27366e-07 0)
(0.736158 5.94901e-08 0)
(0.736158 3.27223e-07 0)
(0.736156 -5.92736e-08 0)
(0.772979 -3.63546e-07 0)
(0.772978 8.07987e-08 0)
(0.772977 3.63394e-07 0)
(0.772976 -8.0578e-08 0)
(0.809895 -4.01633e-07 0)
(0.809894 1.03978e-07 0)
(0.809894 4.01473e-07 0)
(0.809892 -1.03755e-07 0)
(0.846856 -4.41409e-07 0)
(0.846855 1.28763e-07 0)
(0.846854 4.41244e-07 0)
(0.846853 -1.28539e-07 0)
(0.883805 -4.8258e-07 0)
(0.883804 1.54824e-07 0)
(0.883803 4.8241e-07 0)
(0.883802 -1.546e-07 0)
(0.920679 -5.24775e-07 0)
(0.920679 1.81782e-07 0)
(0.920678 5.24605e-07 0)
(0.920676 -1.81561e-07 0)
(0.957413 -5.67537e-07 0)
(0.957412 2.09204e-07 0)
(0.957411 5.67368e-07 0)
(0.95741 -2.08988e-07 0)
(0.993933 -6.10323e-07 0)
(0.993932 2.36618e-07 0)
(0.993932 6.10161e-07 0)
(0.99393 -2.36411e-07 0)
(1.03016 -6.52498e-07 0)
(1.03016 2.63512e-07 0)
(1.03016 6.52343e-07 0)
(1.03016 -2.63314e-07 0)
(1.06601 -6.93335e-07 0)
(1.06601 2.89349e-07 0)
(1.06601 6.93193e-07 0)
(1.06601 -2.89167e-07 0)
(1.10139 -7.32016e-07 0)
(1.10139 3.13571e-07 0)
(1.10139 7.31887e-07 0)
(1.10139 -3.13404e-07 0)
(1.1362 -7.67626e-07 0)
(1.1362 3.35619e-07 0)
(1.1362 7.67515e-07 0)
(1.1362 -3.35472e-07 0)
(1.17034 -7.99169e-07 0)
(1.17034 3.54924e-07 0)
(1.17034 7.99075e-07 0)
(1.17034 -3.54797e-07 0)
(1.20368 -8.25558e-07 0)
(1.20368 3.70941e-07 0)
(1.20368 8.25482e-07 0)
(1.20368 -3.70835e-07 0)
(1.23611 -8.45631e-07 0)
(1.23611 3.83126e-07 0)
(1.23611 8.45573e-07 0)
(1.23611 -3.83041e-07 0)
(1.26749 -8.58157e-07 0)
(1.26749 3.9098e-07 0)
(1.26749 8.58115e-07 0)
(1.26749 -3.90915e-07 0)
(1.29768 -8.61846e-07 0)
(1.29768 3.94004e-07 0)
(1.29768 8.61824e-07 0)
(1.29768 -3.93961e-07 0)
(1.32651 -8.55374e-07 0)
(1.32651 3.91742e-07 0)
(1.32651 8.55371e-07 0)
(1.32651 -3.91721e-07 0)
(1.35383 -8.37408e-07 0)
(1.35383 3.83727e-07 0)
(1.35383 8.3742e-07 0)
(1.35384 -3.83723e-07 0)
(1.37946 -8.0665e-07 0)
(1.37946 3.69514e-07 0)
(1.37946 8.06677e-07 0)
(1.37946 -3.69529e-07 0)
(1.40321 -7.61914e-07 0)
(1.40321 3.48628e-07 0)
(1.40321 7.61952e-07 0)
(1.40321 -3.48655e-07 0)
(1.42486 -7.02236e-07 0)
(1.42486 3.20586e-07 0)
(1.42486 7.02289e-07 0)
(1.42486 -3.20632e-07 0)
(1.4442 -6.27034e-07 0)
(1.44421 2.84854e-07 0)
(1.44421 6.27083e-07 0)
(1.44421 -2.84897e-07 0)
(1.461 -5.36299e-07 0)
(1.461 2.40968e-07 0)
(1.461 5.36344e-07 0)
(1.46101 -2.41011e-07 0)
(1.475 -4.30924e-07 0)
(1.475 1.89084e-07 0)
(1.475 4.30945e-07 0)
(1.47501 -1.89105e-07 0)
(1.48593 -3.13383e-07 0)
(1.48593 1.31816e-07 0)
(1.48593 3.13372e-07 0)
(1.48594 -1.31806e-07 0)
(1.4935 -1.87803e-07 0)
(1.4935 7.66577e-08 0)
(1.4935 1.87777e-07 0)
(1.49351 -7.6632e-08 0)
(1.4974 -6.27726e-08 0)
(1.4974 2.48372e-08 0)
(1.4974 6.27556e-08 0)
(1.49741 -2.48211e-08 0)
)
;

boundaryField
{
    inlet
    {
        type            cyclic;
    }
    outlet
    {
        type            cyclic;
    }
    fixedWalls-bottom
    {
        type            noSlip;
    }
    fixedWalls-top
    {
        type            symmetry;
    }
    frontAndBack
    {
        type            empty;
    }
}


// ************************************************************************* //
