/*--------------------------------*- C++ -*----------------------------------*\
  =========                 |
  \\      /  F ield         | OpenFOAM: The Open Source CFD Toolbox
   \\    /   O peration     | Website:  https://openfoam.org
    \\  /    A nd           | Version:  10
     \\/     M anipulation  |
\*---------------------------------------------------------------------------*/
FoamFile
{
    format      ascii;
    class       volScalarField;
    location    "2500";
    object      p;
}
// * * * * * * * * * * * * * * * * * * * * * * * * * * * * * * * * * * * * * //

dimensions      [0 2 -2 0 0 0 0];

internalField   nonuniform List<scalar> 
400
(
1.2187e-15
-8.11134e-12
1.78211e-11
2.59528e-11
1.74237e-14
-8.13724e-12
1.78087e-11
2.59787e-11
3.22563e-14
-8.16872e-12
1.77947e-11
2.60102e-11
4.53449e-14
-8.19948e-12
1.77813e-11
2.6041e-11
5.82638e-14
-8.22957e-12
1.77683e-11
2.60711e-11
7.10975e-14
-8.25916e-12
1.77554e-11
2.61007e-11
8.42537e-14
-8.28782e-12
1.77423e-11
2.61293e-11
9.75251e-14
-8.31494e-12
1.77289e-11
2.61564e-11
1.11353e-13
-8.33998e-12
1.77152e-11
2.61815e-11
1.25568e-13
-8.36241e-12
1.77009e-11
2.62039e-11
1.40595e-13
-8.38173e-12
1.76859e-11
2.62232e-11
1.56247e-13
-8.39745e-12
1.76702e-11
2.62389e-11
1.72911e-13
-8.40912e-12
1.76536e-11
2.62506e-11
1.90372e-13
-8.41628e-12
1.76361e-11
2.62577e-11
2.08972e-13
-8.41857e-12
1.76175e-11
2.626e-11
2.28464e-13
-8.41562e-12
1.7598e-11
2.62571e-11
2.49144e-13
-8.40713e-12
1.75774e-11
2.62486e-11
2.70731e-13
-8.39285e-12
1.75557e-11
2.62343e-11
2.93484e-13
-8.37258e-12
1.7533e-11
2.6214e-11
3.17102e-13
-8.34619e-12
1.75094e-11
2.61876e-11
3.41821e-13
-8.31363e-12
1.74847e-11
2.6155e-11
3.67346e-13
-8.2749e-12
1.74592e-11
2.61163e-11
3.93924e-13
-8.23013e-12
1.74326e-11
2.60715e-11
4.21308e-13
-8.1795e-12
1.74052e-11
2.60209e-11
4.49814e-13
-8.12334e-12
1.73768e-11
2.59647e-11
4.793e-13
-8.06208e-12
1.73473e-11
2.59034e-11
5.10194e-13
-7.99627e-12
1.73164e-11
2.58376e-11
5.42463e-13
-7.92652e-12
1.72842e-11
2.57678e-11
5.76643e-13
-7.8536e-12
1.725e-11
2.56949e-11
6.12986e-13
-7.77864e-12
1.72137e-11
2.56199e-11
6.52549e-13
-7.70319e-12
1.71742e-11
2.55445e-11
6.95255e-13
-7.6261e-12
1.71315e-11
2.54674e-11
7.37683e-13
-7.5356e-12
1.70891e-11
2.53768e-11
7.7817e-13
-7.4295e-12
1.70487e-11
2.52707e-11
8.19495e-13
-7.31774e-12
1.70074e-11
2.5159e-11
8.61994e-13
-7.20236e-12
1.69649e-11
2.50436e-11
9.05817e-13
-7.08312e-12
1.69212e-11
2.49243e-11
9.50712e-13
-6.96002e-12
1.68763e-11
2.48012e-11
9.96954e-13
-6.83335e-12
1.68301e-11
2.46745e-11
1.04438e-12
-6.70342e-12
1.67827e-11
2.45445e-11
1.09326e-12
-6.57049e-12
1.67339e-11
2.44116e-11
1.14342e-12
-6.43481e-12
1.66838e-11
2.42759e-11
1.19511e-12
-6.29659e-12
1.66322e-11
2.41376e-11
1.24816e-12
-6.15601e-12
1.65792e-11
2.3997e-11
1.30278e-12
-6.01323e-12
1.65247e-11
2.38542e-11
1.35879e-12
-5.8684e-12
1.64687e-11
2.37094e-11
1.41638e-12
-5.7216e-12
1.64112e-11
2.35626e-11
1.47537e-12
-5.57294e-12
1.63522e-11
2.34139e-11
1.53593e-12
-5.42247e-12
1.62918e-11
2.32634e-11
1.59785e-12
-5.27021e-12
1.62299e-11
2.31111e-11
1.66129e-12
-5.11622e-12
1.61665e-11
2.29571e-11
1.72607e-12
-4.96056e-12
1.61018e-11
2.28014e-11
1.79237e-12
-4.8033e-12
1.60356e-11
2.26441e-11
1.86005e-12
-4.64454e-12
1.59679e-11
2.24853e-11
1.92929e-12
-4.48439e-12
1.58988e-11
2.23251e-11
1.99941e-12
-4.3229e-12
1.58287e-11
2.21636e-11
2.06959e-12
-4.16005e-12
1.57586e-11
2.20007e-11
2.14275e-12
-3.99644e-12
1.56855e-11
2.18371e-11
2.23638e-12
-3.83477e-12
1.5592e-11
2.16754e-11
2.34636e-12
-3.67499e-12
1.5482e-11
2.15156e-11
2.45094e-12
-3.51441e-12
1.53775e-11
2.13549e-11
2.54686e-12
-3.35259e-12
1.52817e-11
2.11931e-11
2.63598e-12
-3.18973e-12
1.51926e-11
2.10302e-11
2.7196e-12
-3.02604e-12
1.51091e-11
2.08665e-11
2.7989e-12
-2.86168e-12
1.50298e-11
2.07021e-11
2.87491e-12
-2.69689e-12
1.49539e-11
2.05372e-11
2.94892e-12
-2.53191e-12
1.488e-11
2.03722e-11
3.0219e-12
-2.36711e-12
1.4807e-11
2.02074e-11
3.09465e-12
-2.2028e-12
1.47344e-11
2.00431e-11
3.1675e-12
-2.03932e-12
1.46616e-11
1.98795e-11
3.24071e-12
-1.87695e-12
1.45884e-11
1.97171e-11
3.31423e-12
-1.71592e-12
1.4515e-11
1.95561e-11
3.38806e-12
-1.55642e-12
1.44412e-11
1.93965e-11
3.46201e-12
-1.39868e-12
1.43673e-11
1.92388e-11
3.53598e-12
-1.24293e-12
1.42934e-11
1.9083e-11
3.60975e-12
-1.08939e-12
1.42197e-11
1.89294e-11
3.68319e-12
-9.3832e-13
1.41463e-11
1.87783e-11
3.75607e-12
-7.89949e-13
1.40735e-11
1.86299e-11
3.82825e-12
-6.44535e-13
1.40014e-11
1.84844e-11
3.8995e-12
-5.02339e-13
1.39302e-11
1.83422e-11
3.96966e-12
-3.63635e-13
1.38601e-11
1.82035e-11
4.03851e-12
-2.28696e-13
1.37913e-11
1.80685e-11
4.10589e-12
-9.78119e-14
1.3724e-11
1.79376e-11
4.17155e-12
2.8734e-14
1.36583e-11
1.7811e-11
4.23533e-12
1.50633e-13
1.35946e-11
1.76891e-11
4.29697e-12
2.67595e-13
1.3533e-11
1.75721e-11
4.3563e-12
3.79294e-13
1.34737e-11
1.74604e-11
4.41305e-12
4.85423e-13
1.3417e-11
1.73542e-11
4.46703e-12
5.85641e-13
1.33631e-11
1.7254e-11
4.51797e-12
6.7963e-13
1.33122e-11
1.71599e-11
4.56565e-12
7.67031e-13
1.32645e-11
1.70725e-11
4.6098e-12
8.47513e-13
1.32204e-11
1.6992e-11
4.65018e-12
9.20706e-13
1.318e-11
1.69188e-11
4.68652e-12
9.8626e-13
1.31437e-11
1.68532e-11
4.71855e-12
1.04379e-12
1.31117e-11
1.67957e-11
4.74602e-12
1.09294e-12
1.30843e-11
1.67465e-11
4.76863e-12
1.13334e-12
1.30617e-11
1.67061e-11
4.78607e-12
1.16453e-12
1.30442e-11
1.66749e-11
4.79792e-12
1.18555e-12
1.30324e-11
1.66539e-11
4.80378e-12
1.19582e-12
1.30265e-11
1.66436e-11
)
;

boundaryField
{
    inlet
    {
        type            cyclic;
    }
    outlet
    {
        type            cyclic;
    }
    fixedWalls-bottom
    {
        type            zeroGradient;
    }
    fixedWalls-top
    {
        type            symmetry;
    }
    frontAndBack
    {
        type            empty;
    }
}


// ************************************************************************* //
