/*--------------------------------*- C++ -*----------------------------------*\
  =========                 |
  \\      /  F ield         | OpenFOAM: The Open Source CFD Toolbox
   \\    /   O peration     | Website:  https://openfoam.org
    \\  /    A nd           | Version:  10
     \\/     M anipulation  |
\*---------------------------------------------------------------------------*/
FoamFile
{
    format      ascii;
    class       surfaceScalarField;
    location    "2500";
    object      phi;
}
// * * * * * * * * * * * * * * * * * * * * * * * * * * * * * * * * * * * * * //

dimensions      [0 3 -1 0 0 0 0];

internalField   nonuniform List<scalar> 
696
(
6.39375e-05
3.91204e-15
6.39375e-05
-1.1753e-14
6.39375e-05
-6.59586e-15
1.17562e-14
0.00019483
2.30418e-14
0.00019483
-4.92362e-14
0.00019483
-2.58043e-14
4.92453e-14
0.000330632
5.49559e-14
0.000330632
-1.14258e-13
0.000330632
-5.76528e-14
1.14273e-13
0.000471473
9.94619e-14
0.000471473
-2.08012e-13
0.000471473
-1.02233e-13
2.08032e-13
0.000617484
1.57058e-13
0.000617484
-3.31226e-13
0.000617484
-1.59762e-13
3.31253e-13
0.000768799
2.27706e-13
0.000768799
-4.84143e-13
0.000768799
-2.30475e-13
4.84176e-13
0.000925553
3.12045e-13
0.000925553
-6.66501e-13
0.000925553
-3.14746e-13
6.66539e-13
0.00108789
4.1016e-13
0.00108789
-8.77527e-13
0.00108789
-4.12918e-13
8.77571e-13
0.00125594
5.22782e-13
0.00125594
-1.11593e-12
0.00125594
-5.25469e-13
1.11598e-12
0.00142985
6.50039e-13
0.00142985
-1.37993e-12
0.00142985
-6.52774e-13
1.37999e-12
0.00160977
7.92643e-13
0.00160977
-1.66724e-12
0.00160977
-7.95306e-13
1.6673e-12
0.00179584
9.50638e-13
0.00179584
-1.97512e-12
0.00179584
-9.53345e-13
1.97518e-12
0.00198822
1.12458e-12
0.00198822
-2.30039e-12
0.00198822
-1.12721e-12
2.30046e-12
0.00218705
1.31427e-12
0.00218705
-2.63952e-12
0.00218705
-1.31694e-12
2.63959e-12
0.0023925
1.51994e-12
0.0023925
-2.98861e-12
0.0023925
-1.52253e-12
2.98869e-12
0.00260471
1.74098e-12
0.00260471
-3.34353e-12
0.00260471
-1.74361e-12
3.34362e-12
0.00282384
1.97716e-12
0.00282384
-3.69993e-12
0.00282384
-1.97972e-12
3.70003e-12
0.00305006
2.22733e-12
0.00305006
-4.05337e-12
0.00305006
-2.22992e-12
4.05346e-12
0.00328353
2.49065e-12
0.00328353
-4.39934e-12
0.00328353
-2.49317e-12
4.39944e-12
0.0035244
2.76535e-12
0.0035244
-4.73344e-12
0.0035244
-2.76789e-12
4.73355e-12
0.00377286
3.04994e-12
0.00377286
-5.05141e-12
0.00377286
-3.05241e-12
5.05152e-12
0.00402905
3.34203e-12
0.00402905
-5.34926e-12
0.00402905
-3.34453e-12
5.34938e-12
0.00429317
3.63955e-12
0.00429317
-5.62337e-12
0.00429317
-3.64198e-12
5.6235e-12
0.00456537
3.93959e-12
0.00456537
-5.87063e-12
0.00456537
-3.94204e-12
5.87076e-12
0.00484582
4.2397e-12
0.00484582
-6.0885e-12
0.00484582
-4.24209e-12
6.08864e-12
0.00513471
4.53672e-12
0.00513471
-6.2752e-12
0.00513471
-4.53912e-12
6.27534e-12
0.0054322
4.82813e-12
0.0054322
-6.42974e-12
0.0054322
-4.83046e-12
6.42988e-12
0.00573847
5.11087e-12
0.00573847
-6.55211e-12
0.00573847
-5.11322e-12
6.55226e-12
0.0060537
5.38277e-12
0.0060537
-6.64329e-12
0.0060537
-5.38505e-12
6.64345e-12
0.00637807
5.64128e-12
0.00637807
-6.70534e-12
0.00637807
-5.64357e-12
6.70549e-12
0.00671175
5.88496e-12
0.00671175
-6.7413e-12
0.00671175
-5.88719e-12
6.74146e-12
0.00705492
6.11229e-12
0.00705492
-6.75519e-12
0.00705492
-6.11453e-12
6.75536e-12
0.00740776
6.32002e-12
0.00740776
-6.7433e-12
0.00740776
-6.3222e-12
6.74347e-12
0.00777045
6.50344e-12
0.00777045
-6.70054e-12
0.00777045
-6.50564e-12
6.70072e-12
0.00814317
6.66074e-12
0.00814317
-6.6292e-12
0.00814317
-6.66287e-12
6.62938e-12
0.00852608
6.78989e-12
0.00852608
-6.53209e-12
0.00852608
-6.79203e-12
6.53228e-12
0.00891938
6.89005e-12
0.00891938
-6.41233e-12
0.00891938
-6.89212e-12
6.41252e-12
0.00932323
6.96023e-12
0.00932323
-6.27339e-12
0.00932323
-6.96231e-12
6.27358e-12
0.00973782
7.00066e-12
0.00973782
-6.11886e-12
0.00973782
-7.00268e-12
6.11906e-12
0.0101633
7.01144e-12
0.0101633
-5.95248e-12
0.0101633
-7.01347e-12
5.95268e-12
0.0105998
6.99384e-12
0.0105998
-5.7779e-12
0.0105998
-6.99581e-12
5.7781e-12
0.0110476
6.94891e-12
0.0110476
-5.59874e-12
0.0110476
-6.95089e-12
5.59895e-12
0.0115068
6.87882e-12
0.0115068
-5.41832e-12
0.0115068
-6.88074e-12
5.41854e-12
0.0119776
6.78539e-12
0.0119776
-5.2398e-12
0.0119776
-6.78731e-12
5.24002e-12
0.01246
6.67136e-12
0.01246
-5.06586e-12
0.01246
-6.67323e-12
5.06609e-12
0.0129544
6.53899e-12
0.0129544
-4.89889e-12
0.0129544
-6.54086e-12
4.89911e-12
0.0134607
6.39126e-12
0.0134607
-4.74071e-12
0.0134607
-6.39307e-12
4.74094e-12
0.0139793
6.23047e-12
0.0139793
-4.59276e-12
0.0139793
-6.23228e-12
4.59299e-12
0.0145101
6.05947e-12
0.0145101
-4.4559e-12
0.0145101
-6.06123e-12
4.45613e-12
0.0150533
5.88025e-12
0.0150533
-4.3306e-12
0.0150533
-5.88201e-12
4.33084e-12
0.0156091
5.69516e-12
0.0156091
-4.21676e-12
0.0156091
-5.69686e-12
4.217e-12
0.0161776
5.5056e-12
0.0161776
-4.11392e-12
0.0161776
-5.5073e-12
4.11416e-12
0.0167588
5.31323e-12
0.0167588
-4.02108e-12
0.0167588
-5.31488e-12
4.02131e-12
0.0173529
5.11871e-12
0.0173529
-3.93697e-12
0.0173529
-5.12034e-12
3.9372e-12
0.0179599
4.9229e-12
0.0179599
-3.85986e-12
0.0179599
-4.92448e-12
3.86011e-12
0.01858
4.72573e-12
0.01858
-3.78777e-12
0.01858
-4.72731e-12
3.78802e-12
0.0192131
4.52741e-12
0.0192131
-3.71818e-12
0.0192131
-4.52893e-12
3.71843e-12
0.0198593
4.32736e-12
0.0198593
-3.64814e-12
0.0198593
-4.32889e-12
3.64839e-12
0.0205188
4.14334e-12
0.0205188
-3.57688e-12
0.0205188
-4.14482e-12
3.57714e-12
0.0211914
3.98979e-12
0.0211914
-3.50412e-12
0.0211914
-3.99126e-12
3.50437e-12
0.0218772
3.86005e-12
0.0218772
-3.42797e-12
0.0218772
-3.86146e-12
3.42823e-12
0.0225762
3.74692e-12
0.0225762
-3.34785e-12
0.0225762
-3.74833e-12
3.34811e-12
0.0232883
3.6443e-12
0.0232883
-3.26396e-12
0.0232883
-3.64565e-12
3.26422e-12
0.0240134
3.5466e-12
0.0240134
-3.17709e-12
0.0240134
-3.54795e-12
3.17734e-12
0.0247516
3.45002e-12
0.0247516
-3.08822e-12
0.0247516
-3.45131e-12
3.08848e-12
0.0255027
3.35164e-12
0.0255027
-2.99845e-12
0.0255027
-3.35293e-12
2.99871e-12
0.0262666
3.2503e-12
0.0262666
-2.90869e-12
0.0262666
-3.25154e-12
2.90895e-12
0.0270431
3.1455e-12
0.0270431
-2.81975e-12
0.0270431
-3.14672e-12
2.82001e-12
0.027832
3.03794e-12
0.027832
-2.7321e-12
0.027832
-3.03911e-12
2.73236e-12
0.0286331
2.92826e-12
0.0286331
-2.6461e-12
0.0286331
-2.92942e-12
2.64635e-12
0.0294463
2.81763e-12
0.0294463
-2.56176e-12
0.0294463
-2.81875e-12
2.56202e-12
0.0302711
2.70678e-12
0.0302711
-2.479e-12
0.0302711
-2.70787e-12
2.47925e-12
0.0311074
2.59662e-12
0.0311074
-2.39749e-12
0.0311074
-2.59767e-12
2.39774e-12
0.0319547
2.48756e-12
0.0319547
-2.31691e-12
0.0319547
-2.48857e-12
2.31716e-12
0.0328126
2.38008e-12
0.0328126
-2.23685e-12
0.0328126
-2.38106e-12
2.2371e-12
0.0336808
2.27425e-12
0.0336808
-2.15696e-12
0.0336808
-2.2752e-12
2.1572e-12
0.0345586
2.17024e-12
0.0345586
-2.07693e-12
0.0345586
-2.17116e-12
2.07718e-12
0.0354457
2.06789e-12
0.0354457
-1.99651e-12
0.0354457
-2.06878e-12
1.99676e-12
0.0363413
1.96722e-12
0.0363413
-1.91552e-12
0.0363413
-1.96806e-12
1.91576e-12
0.0372449
1.86797e-12
0.0372449
-1.83379e-12
0.0372449
-1.86878e-12
1.83402e-12
0.0381558
1.77009e-12
0.0381558
-1.75127e-12
0.0381558
-1.77084e-12
1.75149e-12
0.0390732
1.67333e-12
0.0390732
-1.66787e-12
0.0390732
-1.67406e-12
1.66809e-12
0.0399962
1.57764e-12
0.0399962
-1.58364e-12
0.0399962
-1.57832e-12
1.58386e-12
0.0409239
1.48282e-12
0.0409239
-1.49852e-12
0.0409239
-1.48346e-12
1.49872e-12
0.0418555
1.38883e-12
0.0418555
-1.41258e-12
0.0418555
-1.38942e-12
1.41277e-12
0.0427897
1.29549e-12
0.0427897
-1.32576e-12
0.0427897
-1.29605e-12
1.32596e-12
0.0437256
1.20278e-12
0.0437256
-1.23811e-12
0.0437256
-1.20329e-12
1.23828e-12
0.0446618
1.11056e-12
0.0446618
-1.14958e-12
0.0446618
-1.11103e-12
1.14975e-12
0.0455971
1.01878e-12
0.0455971
-1.06022e-12
0.0455971
-1.01921e-12
1.06039e-12
0.0465301
9.27328e-13
0.0465301
-9.69956e-13
0.0465301
-9.27739e-13
9.70135e-13
0.0474592
8.36134e-13
0.0474592
-8.7884e-13
0.0474592
-8.36489e-13
8.78997e-13
0.0483828
7.45053e-13
0.0483828
-7.86744e-13
0.0483828
-7.45371e-13
7.8689e-13
0.0492992
6.53939e-13
0.0492992
-6.93677e-13
0.0492992
-6.5422e-13
6.93819e-13
0.0502065
5.62667e-13
0.0502065
-5.99486e-13
0.0502065
-5.62904e-13
5.99614e-13
0.0511028
4.70996e-13
0.0511028
-5.04049e-13
0.0511028
-4.71188e-13
5.04164e-13
0.0519859
3.78753e-13
0.0519859
-4.07118e-13
0.0519859
-3.78899e-13
4.07207e-13
0.0528536
2.85707e-13
0.0528536
-3.08346e-13
0.0528536
-2.85815e-13
3.08427e-13
0.0537034
1.91747e-13
0.0537034
-2.07161e-13
0.0537034
-1.91803e-13
2.07213e-13
0.0545328
9.70741e-14
0.0545328
-1.02756e-13
0.0545328
-9.70987e-14
1.02787e-13
0.0553392
0.0553392
0.0553392
)
;

boundaryField
{
    inlet
    {
        type            cyclic;
        value           nonuniform List<scalar> 
100
(
-0.0553392
-0.0545328
-0.0537034
-0.0528536
-0.0519859
-0.0511028
-0.0502065
-0.0492992
-0.0483828
-0.0474592
-0.0465301
-0.0455971
-0.0446618
-0.0437256
-0.0427897
-0.0418555
-0.0409239
-0.0399962
-0.0390732
-0.0381558
-0.0372449
-0.0363413
-0.0354457
-0.0345586
-0.0336808
-0.0328126
-0.0319547
-0.0311074
-0.0302711
-0.0294463
-0.0286331
-0.027832
-0.0270431
-0.0262666
-0.0255027
-0.0247516
-0.0240134
-0.0232883
-0.0225762
-0.0218772
-0.0211914
-0.0205188
-0.0198593
-0.0192131
-0.01858
-0.0179599
-0.0173529
-0.0167588
-0.0161776
-0.0156091
-0.0150533
-0.0145101
-0.0139793
-0.0134607
-0.0129544
-0.01246
-0.0119776
-0.0115068
-0.0110476
-0.0105998
-0.0101633
-0.00973782
-0.00932323
-0.00891938
-0.00852608
-0.00814317
-0.00777045
-0.00740776
-0.00705492
-0.00671175
-0.00637807
-0.0060537
-0.00573847
-0.0054322
-0.00513471
-0.00484582
-0.00456537
-0.00429317
-0.00402905
-0.00377286
-0.0035244
-0.00328353
-0.00305006
-0.00282384
-0.00260471
-0.0023925
-0.00218705
-0.00198822
-0.00179584
-0.00160977
-0.00142985
-0.00125594
-0.00108789
-0.000925553
-0.000768799
-0.000617484
-0.000471473
-0.000330632
-0.00019483
-6.39375e-05
)
;
    }
    outlet
    {
        type            cyclic;
        value           nonuniform List<scalar> 
100
(
0.0553392
0.0545328
0.0537034
0.0528536
0.0519859
0.0511028
0.0502065
0.0492992
0.0483828
0.0474592
0.0465301
0.0455971
0.0446618
0.0437256
0.0427897
0.0418555
0.0409239
0.0399962
0.0390732
0.0381558
0.0372449
0.0363413
0.0354457
0.0345586
0.0336808
0.0328126
0.0319547
0.0311074
0.0302711
0.0294463
0.0286331
0.027832
0.0270431
0.0262666
0.0255027
0.0247516
0.0240134
0.0232883
0.0225762
0.0218772
0.0211914
0.0205188
0.0198593
0.0192131
0.01858
0.0179599
0.0173529
0.0167588
0.0161776
0.0156091
0.0150533
0.0145101
0.0139793
0.0134607
0.0129544
0.01246
0.0119776
0.0115068
0.0110476
0.0105998
0.0101633
0.00973782
0.00932323
0.00891938
0.00852608
0.00814317
0.00777045
0.00740776
0.00705492
0.00671175
0.00637807
0.0060537
0.00573847
0.0054322
0.00513471
0.00484582
0.00456537
0.00429317
0.00402905
0.00377286
0.0035244
0.00328353
0.00305006
0.00282384
0.00260471
0.0023925
0.00218705
0.00198822
0.00179584
0.00160977
0.00142985
0.00125594
0.00108789
0.000925553
0.000768799
0.000617484
0.000471473
0.000330632
0.00019483
6.39375e-05
)
;
    }
    fixedWalls-bottom
    {
        type            calculated;
        value           uniform 0;
    }
    fixedWalls-top
    {
        type            symmetry;
        value           uniform 0;
    }
    frontAndBack
    {
        type            empty;
        value           nonuniform List<scalar> 0();
    }
}


// ************************************************************************* //
