/*--------------------------------*- C++ -*----------------------------------*\
  =========                 |
  \\      /  F ield         | OpenFOAM: The Open Source CFD Toolbox
   \\    /   O peration     | Website:  https://openfoam.org
    \\  /    A nd           | Version:  10
     \\/     M anipulation  |
\*---------------------------------------------------------------------------*/
FoamFile
{
    format      ascii;
    class       volVectorField;
    location    "2500";
    object      U;
}
// * * * * * * * * * * * * * * * * * * * * * * * * * * * * * * * * * * * * * //

dimensions      [0 1 -1 0 0 0 0];

internalField   nonuniform List<vector> 
400
(
(0.00692902 -3.27883e-16 0)
(0.00692902 -1.11677e-15 0)
(0.00692902 -1.08083e-15 0)
(0.00692902 1.11834e-15 0)
(0.0208205 1.06484e-14 0)
(0.0208205 -2.50646e-14 0)
(0.0208205 -1.35765e-14 0)
(0.0208205 2.50704e-14 0)
(0.0348416 3.57625e-14 0)
(0.0348416 -7.49595e-14 0)
(0.0348416 -3.86848e-14 0)
(0.0348416 7.49714e-14 0)
(0.0489924 7.40887e-14 0)
(0.0489924 -1.54101e-13 0)
(0.0489924 -7.68427e-14 0)
(0.0489924 1.54119e-13 0)
(0.0632727 1.2519e-13 0)
(0.0632727 -2.62652e-13 0)
(0.0632727 -1.27912e-13 0)
(0.0632727 2.62676e-13 0)
(0.0776823 1.89287e-13 0)
(0.0776823 -4.00856e-13 0)
(0.0776823 -1.92018e-13 0)
(0.0776823 4.00886e-13 0)
(0.0922209 2.66729e-13 0)
(0.0922209 -5.68724e-13 0)
(0.0922209 -2.69465e-13 0)
(0.0922209 5.68759e-13 0)
(0.106888 3.57901e-13 0)
(0.106888 -7.6577e-13 0)
(0.106888 -3.60631e-13 0)
(0.106888 7.6581e-13 0)
(0.121684 4.63211e-13 0)
(0.121684 -9.90965e-13 0)
(0.121684 -4.65934e-13 0)
(0.121684 9.91012e-13 0)
(0.136607 5.83097e-13 0)
(0.136607 -1.24277e-12 0)
(0.136607 -5.85808e-13 0)
(0.136607 1.24282e-12 0)
(0.151658 7.17984e-13 0)
(0.151658 -1.51913e-12 0)
(0.151658 -7.20684e-13 0)
(0.151658 1.51918e-12 0)
(0.166836 8.68264e-13 0)
(0.166836 -1.81753e-12 0)
(0.166836 -8.70949e-13 0)
(0.166836 1.81759e-12 0)
(0.182139 1.03424e-12 0)
(0.182139 -2.13501e-12 0)
(0.182139 -1.03691e-12 0)
(0.182139 2.13507e-12 0)
(0.197568 1.21611e-12 0)
(0.197568 -2.46819e-12 0)
(0.197568 -1.21876e-12 0)
(0.197568 2.46826e-12 0)
(0.213122 1.41389e-12 0)
(0.213122 -2.81333e-12 0)
(0.213122 -1.41652e-12 0)
(0.213122 2.81341e-12 0)
(0.228799 1.62741e-12 0)
(0.228799 -3.16642e-12 0)
(0.228799 -1.63002e-12 0)
(0.228799 3.1665e-12 0)
(0.244599 1.85624e-12 0)
(0.244599 -3.52318e-12 0)
(0.244599 -1.85884e-12 0)
(0.244599 3.52327e-12 0)
(0.26052 2.09972e-12 0)
(0.26052 -3.8792e-12 0)
(0.26052 -2.10229e-12 0)
(0.26052 3.8793e-12 0)
(0.276561 2.35683e-12 0)
(0.276561 -4.22999e-12 0)
(0.276561 -2.35939e-12 0)
(0.276561 4.23009e-12 0)
(0.292722 2.62629e-12 0)
(0.292722 -4.57107e-12 0)
(0.292722 -2.62882e-12 0)
(0.292722 4.57117e-12 0)
(0.309 2.90645e-12 0)
(0.309 -4.89808e-12 0)
(0.309 -2.90896e-12 0)
(0.309 4.89819e-12 0)
(0.325394 3.19538e-12 0)
(0.325394 -5.20686e-12 0)
(0.325394 -3.19786e-12 0)
(0.325394 5.20697e-12 0)
(0.341903 3.49082e-12 0)
(0.341903 -5.49359e-12 0)
(0.341903 -3.49329e-12 0)
(0.341903 5.49371e-12 0)
(0.358525 3.79028e-12 0)
(0.358525 -5.75488e-12 0)
(0.358525 -3.79272e-12 0)
(0.358525 5.75501e-12 0)
(0.375258 4.09106e-12 0)
(0.375258 -5.98788e-12 0)
(0.375258 -4.09347e-12 0)
(0.375258 5.98801e-12 0)
(0.3921 4.39032e-12 0)
(0.3921 -6.19039e-12 0)
(0.3921 -4.39271e-12 0)
(0.3921 6.19053e-12 0)
(0.409049 4.68521e-12 0)
(0.409049 -6.36101e-12 0)
(0.409049 -4.68757e-12 0)
(0.409049 6.36116e-12 0)
(0.426103 4.9729e-12 0)
(0.426103 -6.49922e-12 0)
(0.426103 -4.97524e-12 0)
(0.426103 6.49936e-12 0)
(0.44326 5.25074e-12 0)
(0.44326 -6.60542e-12 0)
(0.44326 -5.25305e-12 0)
(0.44326 6.60557e-12 0)
(0.460516 5.51635e-12 0)
(0.460516 -6.68126e-12 0)
(0.460516 -5.51864e-12 0)
(0.460516 6.68142e-12 0)
(0.47787 5.76801e-12 0)
(0.47787 -6.73007e-12 0)
(0.47787 -5.77027e-12 0)
(0.47787 6.73023e-12 0)
(0.495319 6.00454e-12 0)
(0.495319 -6.75608e-12 0)
(0.495319 -6.00678e-12 0)
(0.495319 6.75624e-12 0)
(0.512859 6.22204e-12 0)
(0.512859 -6.75487e-12 0)
(0.512859 -6.22425e-12 0)
(0.512859 6.75504e-12 0)
(0.530489 6.41853e-12 0)
(0.530489 -6.72858e-12 0)
(0.530489 -6.42072e-12 0)
(0.530489 6.72875e-12 0)
(0.548203 6.58947e-12 0)
(0.548203 -6.67147e-12 0)
(0.548203 -6.59163e-12 0)
(0.548203 6.67165e-12 0)
(0.566 6.73296e-12 0)
(0.566 -6.5864e-12 0)
(0.566 -6.73509e-12 0)
(0.566 6.58659e-12 0)
(0.583876 6.84772e-12 0)
(0.583876 -6.47699e-12 0)
(0.583876 -6.84983e-12 0)
(0.583876 6.47717e-12 0)
(0.601826 6.93287e-12 0)
(0.601826 -6.34667e-12 0)
(0.601826 -6.93495e-12 0)
(0.601826 6.34686e-12 0)
(0.619847 6.98804e-12 0)
(0.619847 -6.19896e-12 0)
(0.619847 -6.99009e-12 0)
(0.619847 6.19916e-12 0)
(0.637934 7.01337e-12 0)
(0.637934 -6.03754e-12 0)
(0.637934 -7.01539e-12 0)
(0.637934 6.03774e-12 0)
(0.656084 7.00956e-12 0)
(0.656084 -5.86612e-12 0)
(0.656084 -7.01156e-12 0)
(0.656084 5.86632e-12 0)
(0.674292 6.97779e-12 0)
(0.674292 -5.68836e-12 0)
(0.674292 -6.97977e-12 0)
(0.674292 5.68857e-12 0)
(0.692552 6.9197e-12 0)
(0.692552 -5.50776e-12 0)
(0.692552 -6.92165e-12 0)
(0.692552 5.50797e-12 0)
(0.710861 6.83728e-12 0)
(0.710861 -5.32757e-12 0)
(0.710861 -6.8392e-12 0)
(0.710861 5.32778e-12 0)
(0.729212 6.73285e-12 0)
(0.729212 -5.15072e-12 0)
(0.729212 -6.73474e-12 0)
(0.729212 5.15094e-12 0)
(0.747601 6.60893e-12 0)
(0.747601 -4.97976e-12 0)
(0.747601 -6.61079e-12 0)
(0.747601 4.97999e-12 0)
(0.766021 6.46815e-12 0)
(0.766021 -4.81681e-12 0)
(0.766021 -6.46999e-12 0)
(0.766021 4.81703e-12 0)
(0.784467 6.3132e-12 0)
(0.784467 -4.6635e-12 0)
(0.784467 -6.31501e-12 0)
(0.784467 4.66372e-12 0)
(0.802932 6.14667e-12 0)
(0.802932 -4.52097e-12 0)
(0.802932 -6.14845e-12 0)
(0.802932 4.5212e-12 0)
(0.82141 5.97098e-12 0)
(0.82141 -4.3899e-12 0)
(0.82141 -5.97274e-12 0)
(0.82141 4.39013e-12 0)
(0.839893 5.78833e-12 0)
(0.839893 -4.27044e-12 0)
(0.839893 -5.79006e-12 0)
(0.839893 4.27068e-12 0)
(0.858376 5.6006e-12 0)
(0.858376 -4.16232e-12 0)
(0.858376 -5.6023e-12 0)
(0.858376 4.16256e-12 0)
(0.876851 5.40933e-12 0)
(0.876851 -4.06479e-12 0)
(0.876851 -5.411e-12 0)
(0.876851 4.06503e-12 0)
(0.895309 5.21572e-12 0)
(0.895309 -3.97672e-12 0)
(0.895309 -5.21736e-12 0)
(0.895309 3.97696e-12 0)
(0.913743 5.02062e-12 0)
(0.913743 -3.89662e-12 0)
(0.913743 -5.02223e-12 0)
(0.913743 3.89686e-12 0)
(0.932145 4.82412e-12 0)
(0.932145 -3.8226e-12 0)
(0.932145 -4.8257e-12 0)
(0.932145 3.82284e-12 0)
(0.950505 4.62477e-12 0)
(0.950505 -3.75221e-12 0)
(0.950505 -4.62633e-12 0)
(0.950505 3.75246e-12 0)
(0.968815 4.42152e-12 0)
(0.968815 -3.6826e-12 0)
(0.968815 -4.42304e-12 0)
(0.968815 3.68285e-12 0)
(0.987065 4.2337e-12 0)
(0.987065 -3.61326e-12 0)
(0.987065 -4.2352e-12 0)
(0.987065 3.61351e-12 0)
(1.00525 4.0609e-12 0)
(1.00525 -3.54118e-12 0)
(1.00525 -4.06237e-12 0)
(1.00525 3.54143e-12 0)
(1.02335 3.91903e-12 0)
(1.02335 -3.46673e-12 0)
(1.02335 -3.92047e-12 0)
(1.02335 3.46698e-12 0)
(1.04136 3.79934e-12 0)
(1.04136 -3.3886e-12 0)
(1.04136 -3.80075e-12 0)
(1.04136 3.38886e-12 0)
(1.05927 3.69314e-12 0)
(1.05927 -3.30645e-12 0)
(1.05927 -3.69453e-12 0)
(1.05927 3.3067e-12 0)
(1.07706 3.59419e-12 0)
(1.07706 -3.2208e-12 0)
(1.07706 -3.59554e-12 0)
(1.07706 3.22105e-12 0)
(1.09474 3.49788e-12 0)
(1.09474 -3.13261e-12 0)
(1.09474 -3.4992e-12 0)
(1.09474 3.13287e-12 0)
(1.11227 3.4009e-12 0)
(1.11227 -3.04302e-12 0)
(1.11227 -3.40219e-12 0)
(1.11227 3.04327e-12 0)
(1.12966 3.30126e-12 0)
(1.12966 -2.95304e-12 0)
(1.12966 -3.30253e-12 0)
(1.12966 2.9533e-12 0)
(1.14688 3.19821e-12 0)
(1.14688 -2.86354e-12 0)
(1.14688 -3.19944e-12 0)
(1.14688 2.8638e-12 0)
(1.16392 3.0919e-12 0)
(1.16392 -2.77516e-12 0)
(1.16392 -3.09309e-12 0)
(1.16392 2.77542e-12 0)
(1.18078 2.98308e-12 0)
(1.18078 -2.68832e-12 0)
(1.18078 -2.98424e-12 0)
(1.18078 2.68858e-12 0)
(1.19742 2.8727e-12 0)
(1.19742 -2.60317e-12 0)
(1.19742 -2.87384e-12 0)
(1.19742 2.60343e-12 0)
(1.21385 2.76177e-12 0)
(1.21385 -2.51968e-12 0)
(1.21385 -2.76287e-12 0)
(1.21385 2.51994e-12 0)
(1.23004 2.65111e-12 0)
(1.23004 -2.43763e-12 0)
(1.23004 -2.65218e-12 0)
(1.23004 2.43789e-12 0)
(1.24597 2.5414e-12 0)
(1.24597 -2.35669e-12 0)
(1.24597 -2.54243e-12 0)
(1.24597 2.35694e-12 0)
(1.26163 2.43307e-12 0)
(1.26163 -2.27646e-12 0)
(1.26163 -2.43406e-12 0)
(1.26163 2.27671e-12 0)
(1.277 2.3264e-12 0)
(1.277 -2.19657e-12 0)
(1.277 -2.32736e-12 0)
(1.277 2.19682e-12 0)
(1.29207 2.22149e-12 0)
(1.29207 -2.11668e-12 0)
(1.29207 -2.22241e-12 0)
(1.29207 2.11693e-12 0)
(1.30681 2.11833e-12 0)
(1.30681 -2.03651e-12 0)
(1.30681 -2.11923e-12 0)
(1.30681 2.03676e-12 0)
(1.3212 2.01686e-12 0)
(1.3212 -1.95584e-12 0)
(1.3212 -2.01772e-12 0)
(1.3212 1.95608e-12 0)
(1.33522 1.91694e-12 0)
(1.33522 -1.8745e-12 0)
(1.33522 -1.91776e-12 0)
(1.33522 1.87474e-12 0)
(1.34885 1.81842e-12 0)
(1.34885 -1.79238e-12 0)
(1.34885 -1.8192e-12 0)
(1.34885 1.79261e-12 0)
(1.36207 1.72114e-12 0)
(1.36207 -1.70943e-12 0)
(1.36207 -1.72188e-12 0)
(1.36207 1.70966e-12 0)
(1.37486 1.62496e-12 0)
(1.37486 -1.62561e-12 0)
(1.37486 -1.62566e-12 0)
(1.37486 1.62583e-12 0)
(1.38719 1.52974e-12 0)
(1.38719 -1.54093e-12 0)
(1.38719 -1.5304e-12 0)
(1.38719 1.54114e-12 0)
(1.39904 1.43536e-12 0)
(1.39904 -1.45539e-12 0)
(1.39904 -1.43598e-12 0)
(1.39904 1.45559e-12 0)
(1.41038 1.34172e-12 0)
(1.41038 -1.36901e-12 0)
(1.41038 -1.3423e-12 0)
(1.41038 1.36921e-12 0)
(1.42119 1.24872e-12 0)
(1.42119 -1.28177e-12 0)
(1.42119 -1.24926e-12 0)
(1.42119 1.28195e-12 0)
(1.43143 1.15628e-12 0)
(1.43143 -1.19368e-12 0)
(1.43143 -1.15677e-12 0)
(1.43143 1.19385e-12 0)
(1.44109 1.0643e-12 0)
(1.44109 -1.10473e-12 0)
(1.44109 -1.06476e-12 0)
(1.44109 1.1049e-12 0)
(1.45012 9.72715e-13 0)
(1.45012 -1.01492e-12 0)
(1.45012 -9.73136e-13 0)
(1.45012 1.01509e-12 0)
(1.45851 8.81422e-13 0)
(1.45851 -9.24232e-13 0)
(1.45851 -8.81805e-13 0)
(1.45851 9.244e-13 0)
(1.46622 7.90318e-13 0)
(1.46622 -8.32632e-13 0)
(1.46622 -7.90655e-13 0)
(1.46622 8.32784e-13 0)
(1.47322 6.99261e-13 0)
(1.47322 -7.40065e-13 0)
(1.47322 -6.99561e-13 0)
(1.47322 7.4021e-13 0)
(1.47947 6.08111e-13 0)
(1.47947 -6.4646e-13 0)
(1.47947 -6.08371e-13 0)
(1.47947 6.46595e-13 0)
(1.48494 5.16693e-13 0)
(1.48494 -5.51696e-13 0)
(1.48494 -5.16907e-13 0)
(1.48494 5.51818e-13 0)
(1.48959 4.24788e-13 0)
(1.48959 -4.55581e-13 0)
(1.48959 -4.24957e-13 0)
(1.48959 4.55684e-13 0)
(1.4934 3.32204e-13 0)
(1.4934 -3.57749e-13 0)
(1.4934 -3.32331e-13 0)
(1.4934 3.57835e-13 0)
(1.49631 2.38749e-13 0)
(1.49631 -2.57729e-13 0)
(1.49631 -2.38829e-13 0)
(1.49631 2.57795e-13 0)
(1.49829 1.44264e-13 0)
(1.49829 -1.55576e-13 0)
(1.49829 -1.44302e-13 0)
(1.49829 1.55618e-13 0)
(1.4993 4.78736e-14 0)
(1.4993 -5.25716e-14 0)
(1.4993 -4.78866e-14 0)
(1.4993 5.25883e-14 0)
)
;

boundaryField
{
    inlet
    {
        type            cyclic;
    }
    outlet
    {
        type            cyclic;
    }
    fixedWalls-bottom
    {
        type            noSlip;
    }
    fixedWalls-top
    {
        type            symmetry;
    }
    frontAndBack
    {
        type            empty;
    }
}


// ************************************************************************* //
