/*--------------------------------*- C++ -*----------------------------------*\
  =========                 |
  \\      /  F ield         | OpenFOAM: The Open Source CFD Toolbox
   \\    /   O peration     | Website:  https://openfoam.org
    \\  /    A nd           | Version:  10
     \\/     M anipulation  |
\*---------------------------------------------------------------------------*/
FoamFile
{
    format      ascii;
    class       volScalarField;
    location    "341";
    object      k;
}
// * * * * * * * * * * * * * * * * * * * * * * * * * * * * * * * * * * * * * //

dimensions      [0 2 -2 0 0 0 0];

internalField   nonuniform List<scalar> 
200
(
8.14622e-07
8.14835e-07
8.15098e-07
8.15037e-07
2.46055e-05
2.46119e-05
2.46199e-05
2.4618e-05
0.000177263
0.00017731
0.000177367
0.000177354
0.000642232
0.000642408
0.000642609
0.000642556
0.00155961
0.00156005
0.00156049
0.00156036
0.00283964
0.00284035
0.00284103
0.00284077
0.00419785
0.00419866
0.00419946
0.00419903
0.00541064
0.00541132
0.00541214
0.00541146
0.00640877
0.00640937
0.00641012
0.00640906
0.00720399
0.00720454
0.00720515
0.0072037
0.00782023
0.00782077
0.00782122
0.00781942
0.00828668
0.00828728
0.00828753
0.00828549
0.00863091
0.00863162
0.00863165
0.00862952
0.00887646
0.00887715
0.00887704
0.00887495
0.00904209
0.00904264
0.00904255
0.00904057
0.00914259
0.00914304
0.00914295
0.00914113
0.00918956
0.00918995
0.00918983
0.00918821
0.00919206
0.00919242
0.00919227
0.00919086
0.00915726
0.00915759
0.0091574
0.00915624
0.00909084
0.00909108
0.00909091
0.00909001
0.00899739
0.00899753
0.00899735
0.00899676
0.00888065
0.00888074
0.00888052
0.00888027
0.00874387
0.00874387
0.00874355
0.00874371
0.00858982
0.00858968
0.00858933
0.00858975
0.00842088
0.00842066
0.00842029
0.00842087
0.00823908
0.00823881
0.00823843
0.00823907
0.00804553
0.00804527
0.00804484
0.0080456
0.00784076
0.00784051
0.00784001
0.00784092
0.00762519
0.00762499
0.00762437
0.0076254
0.00739928
0.00739911
0.00739836
0.0073995
0.00716344
0.00716319
0.00716244
0.00716364
0.00691812
0.00691779
0.00691701
0.00691829
0.0066638
0.00666343
0.00666257
0.00666396
0.00640101
0.00640075
0.00639975
0.00640123
0.00613056
0.00613033
0.00612936
0.00613075
0.00585328
0.00585308
0.00585213
0.00585339
0.00557011
0.00556989
0.005569
0.00557011
0.00528211
0.00528191
0.00528106
0.00528207
0.00499062
0.0049905
0.00498962
0.00499065
0.00469753
0.00469728
0.00469651
0.00469747
0.0044048
0.00440444
0.00440383
0.00440464
0.00411501
0.00411439
0.00411408
0.00411478
0.0038314
0.00383033
0.00383045
0.00383112
0.00355801
0.00355674
0.00355703
0.00355767
0.00329992
0.00329863
0.00329892
0.00329953
0.00306346
0.00306233
0.00306245
0.00306304
0.0028563
0.00285555
0.00285534
0.00285593
0.00268733
0.00268657
0.00268643
0.00268711
0.00256583
0.00256555
0.00256522
0.0025662
0.00250138
0.00250133
0.00250084
0.00250198
)
;

boundaryField
{
    inlet
    {
        type            cyclic;
    }
    outlet
    {
        type            cyclic;
    }
    fixedWalls-bottom
    {
        type            kqRWallFunction;
        value           nonuniform List<scalar> 4(8.14622e-07 8.14835e-07 8.15098e-07 8.15037e-07);
    }
    fixedWalls-top
    {
        type            symmetry;
    }
    frontAndBack
    {
        type            empty;
    }
}


// ************************************************************************* //
