/*--------------------------------*- C++ -*----------------------------------*\
  =========                 |
  \\      /  F ield         | OpenFOAM: The Open Source CFD Toolbox
   \\    /   O peration     | Website:  https://openfoam.org
    \\  /    A nd           | Version:  10
     \\/     M anipulation  |
\*---------------------------------------------------------------------------*/
FoamFile
{
    format      ascii;
    class       volScalarField;
    location    "341";
    object      nut;
}
// * * * * * * * * * * * * * * * * * * * * * * * * * * * * * * * * * * * * * //

dimensions      [0 2 -1 0 0 0 0];

internalField   nonuniform List<scalar> 
200
(
4.18569e-10
4.18679e-10
4.18814e-10
4.18782e-10
7.43578e-08
7.43772e-08
7.44012e-08
7.43956e-08
1.58472e-06
1.58515e-06
1.58566e-06
1.58554e-06
1.1711e-05
1.17148e-05
1.17185e-05
1.17175e-05
4.59826e-05
4.60016e-05
4.60155e-05
4.60109e-05
0.000117469
0.000117526
0.000117556
0.000117544
0.000225066
0.00022517
0.000225215
0.000225189
0.000355264
0.000355305
0.000355368
0.000355333
0.000495444
0.000495476
0.000495544
0.00049547
0.000650645
0.000650683
0.000650748
0.000650612
0.000819457
0.000819512
0.00081957
0.000819358
0.000999647
0.000999737
0.00099978
0.000999492
0.00118844
0.00118858
0.00118859
0.00118824
0.00138366
0.00138381
0.00138381
0.00138342
0.00158319
0.00158332
0.00158333
0.00158292
0.00178482
0.00178492
0.00178493
0.00178453
0.0019864
0.00198649
0.00198648
0.00198609
0.00218594
0.00218603
0.00218599
0.00218563
0.00238167
0.00238175
0.0023817
0.00238138
0.00257215
0.00257219
0.00257215
0.0025719
0.00275633
0.00275631
0.00275631
0.00275616
0.00293361
0.0029336
0.00293366
0.00293356
0.00310388
0.00310396
0.00310407
0.00310385
0.00326715
0.00326739
0.00326755
0.0032668
0.00342256
0.00342287
0.00342296
0.00342152
0.00356563
0.00356583
0.00356572
0.00356476
0.00368248
0.00368335
0.00368321
0.00368785
0.00377659
0.00377769
0.00377759
0.00378289
0.00385864
0.00386044
0.00386046
0.00386632
0.0039295
0.00393089
0.00393197
0.00393821
0.00398918
0.00398766
0.00399163
0.00399873
0.00403672
0.0040349
0.0040382
0.00404762
0.00407179
0.00407077
0.00407224
0.00408468
0.00409304
0.00409666
0.00409491
0.00410924
0.00410813
0.00410468
0.00411065
0.0041201
0.00410681
0.00410927
0.00410925
0.00411975
0.00409317
0.00409687
0.00409619
0.0041071
0.00406632
0.00407094
0.00406962
0.00408193
0.00402446
0.00403081
0.00402775
0.00404443
0.00397743
0.00397329
0.00398029
0.00399113
0.00391327
0.00390785
0.00391967
0.00392558
0.003837
0.00383082
0.00384388
0.0038492
0.00375018
0.00374312
0.00375648
0.0037626
0.00365505
0.0036473
0.00366077
0.00366788
0.00355502
0.00354673
0.00356029
0.00356862
0.00345501
0.00344633
0.00345982
0.0034699
0.00336157
0.00335279
0.00336578
0.0033785
0.00328274
0.00327365
0.00328586
0.00330265
0.00322698
0.00321888
0.0032286
0.00325124
0.00320202
0.00319732
0.00320204
0.00323092
)
;

boundaryField
{
    inlet
    {
        type            cyclic;
    }
    outlet
    {
        type            cyclic;
    }
    fixedWalls-bottom
    {
        type            nutkWallFunction;
        Cmu             0.09;
        kappa           0.41;
        E               9.8;
        value           uniform 0;
    }
    fixedWalls-top
    {
        type            symmetry;
    }
    frontAndBack
    {
        type            empty;
    }
}


// ************************************************************************* //
