/*--------------------------------*- C++ -*----------------------------------*\
  =========                 |
  \\      /  F ield         | OpenFOAM: The Open Source CFD Toolbox
   \\    /   O peration     | Website:  https://openfoam.org
    \\  /    A nd           | Version:  10
     \\/     M anipulation  |
\*---------------------------------------------------------------------------*/
FoamFile
{
    format      ascii;
    class       volScalarField;
    location    "341";
    object      omega;
}
// * * * * * * * * * * * * * * * * * * * * * * * * * * * * * * * * * * * * * //

dimensions      [0 0 -1 0 0 0 0];

internalField   nonuniform List<scalar> 
200
(
1946.21
1946.21
1946.21
1946.21
330.907
330.907
330.907
330.907
111.858
111.857
111.857
111.857
54.8398
54.8375
54.8369
54.8372
33.9175
33.9129
33.9123
33.9128
24.1735
24.168
24.1675
24.1678
18.6516
18.6466
18.6464
18.6467
15.0536
15.0504
15.0504
15.0507
12.4915
12.4899
12.4899
12.4916
10.5588
10.5594
10.5589
10.5624
9.0494
9.05155
9.05098
9.05582
7.84466
7.84722
7.84691
7.85281
6.86912
6.87013
6.87099
6.87712
6.06825
6.06881
6.07167
6.07636
5.40566
5.4085
5.40916
5.41347
4.85385
4.85649
4.85704
4.86086
4.3908
4.3931
4.39375
4.39692
3.99987
4.00151
4.00254
4.005
3.66782
3.66818
3.67011
3.6719
3.384
3.38436
3.38553
3.38693
3.13991
3.14039
3.14137
3.14154
2.92822
2.92893
2.92923
2.92882
2.74322
2.74355
2.74368
2.74266
2.57998
2.57984
2.5799
2.57832
2.43472
2.43422
2.43411
2.43196
2.3034
2.3039
2.30279
2.30068
2.18481
2.18423
2.18419
2.18165
2.07615
2.07548
2.0754
2.07273
1.97614
1.97516
1.97499
1.97226
1.88301
1.8823
1.88159
1.8789
1.79572
1.79634
1.79436
1.79148
1.7138
1.71449
1.71289
1.70923
1.63658
1.6369
1.63609
1.63145
1.56388
1.56243
1.56285
1.55776
1.4923
1.4935
1.49109
1.48801
1.42526
1.42436
1.42414
1.42081
1.36083
1.35955
1.35956
1.35622
1.29899
1.29747
1.29768
1.29401
1.24007
1.23809
1.23881
1.23396
1.18105
1.18221
1.17994
1.17698
1.12561
1.12707
1.12352
1.12203
1.07246
1.07402
1.07029
1.069
1.02166
1.0233
1.01969
1.01821
0.973451
0.97517
0.971662
0.969952
0.92824
0.930048
0.926585
0.924596
0.88667
0.888576
0.885147
0.882747
0.849693
0.851693
0.848346
0.845326
0.818624
0.820666
0.817573
0.813624
0.795118
0.797031
0.794531
0.7893
0.781191
0.78232
0.781013
0.774386
)
;

boundaryField
{
    inlet
    {
        type            cyclic;
    }
    outlet
    {
        type            cyclic;
    }
    fixedWalls-bottom
    {
        beta1           0.075;
        blended         0;
        type            omegaWallFunction;
        value           nonuniform List<scalar> 4(1946.21 1946.21 1946.21 1946.21);
    }
    fixedWalls-top
    {
        type            symmetry;
    }
    frontAndBack
    {
        type            empty;
    }
}


// ************************************************************************* //
