/*--------------------------------*- C++ -*----------------------------------*\
  =========                 |
  \\      /  F ield         | OpenFOAM: The Open Source CFD Toolbox
   \\    /   O peration     | Website:  https://openfoam.org
    \\  /    A nd           | Version:  10
     \\/     M anipulation  |
\*---------------------------------------------------------------------------*/
FoamFile
{
    format      ascii;
    class       volScalarField;
    location    "341";
    object      p;
}
// * * * * * * * * * * * * * * * * * * * * * * * * * * * * * * * * * * * * * //

dimensions      [0 2 -2 0 0 0 0];

internalField   nonuniform List<scalar> 
200
(
6.85634e-11
-6.19636e-07
-7.83427e-07
-1.66603e-07
7.47196e-10
-6.20874e-07
-7.83966e-07
-1.65381e-07
1.69528e-09
-6.22517e-07
-7.84863e-07
-1.63749e-07
3.0034e-09
-6.2391e-07
-7.86114e-07
-1.6237e-07
4.5272e-09
-6.23081e-07
-7.87625e-07
-1.63219e-07
6.14007e-09
-6.16546e-07
-7.89226e-07
-1.69773e-07
8.21074e-09
-6.03352e-07
-7.91283e-07
-1.82986e-07
1.12147e-08
-5.90167e-07
-7.94257e-07
-1.96189e-07
1.70629e-08
-5.81606e-07
-8.00075e-07
-2.04771e-07
2.87245e-08
-5.75334e-07
-8.11694e-07
-2.11064e-07
4.78093e-08
-5.70124e-07
-8.30739e-07
-2.16297e-07
7.44934e-08
-5.65322e-07
-8.57371e-07
-2.21122e-07
1.08111e-07
-5.60829e-07
-8.9094e-07
-2.25639e-07
1.47036e-07
-5.57359e-07
-9.29804e-07
-2.29134e-07
1.88929e-07
-5.56185e-07
-9.71641e-07
-2.30334e-07
2.32208e-07
-5.57899e-07
-1.01485e-06
-2.28645e-07
2.76843e-07
-5.62684e-07
-1.05943e-06
-2.23888e-07
3.23329e-07
-5.70398e-07
-1.10584e-06
-2.16201e-07
3.71544e-07
-5.81099e-07
-1.15399e-06
-2.05528e-07
4.20236e-07
-5.94748e-07
-1.20262e-06
-1.91905e-07
4.67343e-07
-6.11036e-07
-1.24967e-06
-1.75646e-07
5.12296e-07
-6.2838e-07
-1.29457e-06
-1.58329e-07
5.59089e-07
-6.44228e-07
-1.34132e-06
-1.42505e-07
6.20478e-07
-6.56165e-07
-1.40266e-06
-1.30582e-07
7.09554e-07
-6.66559e-07
-1.4917e-06
-1.20199e-07
8.063e-07
-6.81593e-07
-1.58841e-06
-1.05205e-07
8.30296e-07
-6.97737e-07
-1.61238e-06
-8.91285e-08
7.76566e-07
-7.067e-07
-1.55862e-06
-8.02103e-08
7.08644e-07
-7.01684e-07
-1.49068e-06
-8.52462e-08
6.2372e-07
-6.79711e-07
-1.40574e-06
-1.07266e-07
4.83305e-07
-6.54686e-07
-1.26531e-06
-1.3233e-07
2.84718e-07
-6.48308e-07
-1.06669e-06
-1.38688e-07
6.33288e-08
-6.68181e-07
-8.4531e-07
-1.18687e-07
-1.5184e-07
-6.86031e-07
-6.30122e-07
-1.00728e-07
-3.7117e-07
-6.85399e-07
-4.10803e-07
-1.01289e-07
-5.56652e-07
-6.77836e-07
-2.25296e-07
-1.08872e-07
-6.78915e-07
-6.63565e-07
-1.03062e-07
-1.23163e-07
-7.93928e-07
-6.43553e-07
1.19671e-08
-1.43231e-07
-9.41266e-07
-6.26987e-07
1.59295e-07
-1.5978e-07
-1.14632e-06
-6.1892e-07
3.64415e-07
-1.67802e-07
-1.38293e-06
-5.85159e-07
6.01053e-07
-2.01476e-07
-1.61553e-06
-5.16887e-07
8.33734e-07
-2.69761e-07
-1.84344e-06
-4.51548e-07
1.06167e-06
-3.35083e-07
-2.06841e-06
-4.01838e-07
1.28668e-06
-3.84788e-07
-2.28979e-06
-3.64718e-07
1.50806e-06
-4.2187e-07
-2.50549e-06
-3.37283e-07
1.72378e-06
-4.49271e-07
-2.71053e-06
-3.19776e-07
1.92882e-06
-4.66711e-07
-2.89495e-06
-3.13224e-07
2.11324e-06
-4.73151e-07
-3.04233e-06
-3.16153e-07
2.2606e-06
-4.70057e-07
-3.13691e-06
-3.22574e-07
2.35517e-06
-4.63484e-07
)
;

boundaryField
{
    inlet
    {
        type            cyclic;
    }
    outlet
    {
        type            cyclic;
    }
    fixedWalls-bottom
    {
        type            zeroGradient;
    }
    fixedWalls-top
    {
        type            symmetry;
    }
    frontAndBack
    {
        type            empty;
    }
}


// ************************************************************************* //
