/*--------------------------------*- C++ -*----------------------------------*\
  =========                 |
  \\      /  F ield         | OpenFOAM: The Open Source CFD Toolbox
   \\    /   O peration     | Website:  https://openfoam.org
    \\  /    A nd           | Version:  10
     \\/     M anipulation  |
\*---------------------------------------------------------------------------*/
FoamFile
{
    format      ascii;
    class       surfaceScalarField;
    location    "341";
    object      phi;
}
// * * * * * * * * * * * * * * * * * * * * * * * * * * * * * * * * * * * * * //

dimensions      [0 3 -1 0 0 0 0];

internalField   nonuniform List<scalar> 
346
(
0.00072896
2.58881e-10
0.000728971
-9.41208e-09
0.000728974
-2.98268e-09
9.59415e-09
0.00225702
1.26966e-08
0.00225706
-4.18356e-08
0.00225707
-1.51785e-08
4.21647e-08
0.00389901
3.98771e-08
0.00389907
-1.03565e-07
0.0038991
-4.22433e-08
1.04094e-07
0.0056451
7.76685e-08
0.00564519
-1.97909e-07
0.00564523
-7.97724e-08
1.98502e-07
0.00744928
1.16873e-07
0.0074494
-3.1682e-07
0.00744944
-1.1896e-07
3.17539e-07
0.00923065
1.35653e-07
0.00923076
-4.28757e-07
0.00923078
-1.37485e-07
4.29471e-07
0.0109224
1.22925e-07
0.0109225
-4.99791e-07
0.0109225
-1.24729e-07
5.00579e-07
0.0125082
7.21904e-08
0.0125083
-5.48904e-07
0.0125082
-7.37888e-08
5.49654e-07
0.0140061
-6.78776e-09
0.0140062
-6.0392e-07
0.0140061
5.2397e-09
6.04707e-07
0.0154366
-9.94166e-08
0.0154367
-6.64858e-07
0.0154366
9.80203e-08
6.65596e-07
0.0168145
-1.90595e-07
0.0168146
-7.25911e-07
0.0168145
1.89254e-07
7.26669e-07
0.0181532
-2.73381e-07
0.0181533
-7.79142e-07
0.0181532
2.72146e-07
7.79852e-07
0.0194647
-3.42328e-07
0.0194648
-8.17758e-07
0.0194647
3.41151e-07
8.1847e-07
0.0207595
-3.97608e-07
0.0207595
-8.40125e-07
0.0207595
3.96505e-07
8.40795e-07
0.0220463
-4.43005e-07
0.0220463
-8.48767e-07
0.0220462
4.41959e-07
8.49427e-07
0.0233326
-4.83406e-07
0.0233326
-8.48639e-07
0.0233326
4.82411e-07
8.49268e-07
0.0246249
-5.21851e-07
0.0246249
-8.42747e-07
0.0246249
5.20914e-07
8.43349e-07
0.0259288
-5.57318e-07
0.0259288
-8.34485e-07
0.0259288
5.56418e-07
8.35065e-07
0.0272492
-5.9085e-07
0.0272492
-8.24811e-07
0.0272492
5.90012e-07
8.25352e-07
0.0285904
-6.22834e-07
0.0285904
-8.1662e-07
0.0285904
6.22021e-07
8.1715e-07
0.0299563
-6.61183e-07
0.0299563
-8.09874e-07
0.0299563
6.60437e-07
8.10353e-07
0.0313503
-7.10513e-07
0.0313503
-8.00917e-07
0.0313502
7.09787e-07
8.01391e-07
0.0327753
-7.70369e-07
0.0327753
-7.75459e-07
0.0327753
7.69715e-07
7.75873e-07
0.0342341
-8.11683e-07
0.034234
-7.10605e-07
0.034234
8.11047e-07
7.11018e-07
0.0357289
-7.74072e-07
0.0357288
-5.88817e-07
0.0357289
7.73499e-07
5.89173e-07
0.0372625
-5.97743e-07
0.0372623
-4.22414e-07
0.0372625
5.97192e-07
4.22769e-07
0.038838
-3.86877e-07
0.0388378
-2.3748e-07
0.038838
3.86381e-07
2.37781e-07
0.0404593
-2.42351e-07
0.0404591
-5.15973e-08
0.0404593
2.41885e-07
5.1891e-08
0.0421292
-1.17411e-07
0.042129
1.34592e-07
0.0421291
1.1697e-07
-1.34325e-07
0.0438495
1.71027e-08
0.0438493
3.35995e-07
0.0438495
-1.75033e-08
-3.35746e-07
0.0456222
1.20695e-07
0.045622
5.37556e-07
0.0456221
-1.21096e-07
-5.3731e-07
0.0474489
1.49172e-07
0.0474488
6.89691e-07
0.0474488
-1.49514e-07
-6.89481e-07
0.0493313
1.14672e-07
0.0493312
7.30761e-07
0.0493312
-1.15053e-07
-7.30514e-07
0.0512706
6.42836e-08
0.0512707
6.75308e-07
0.0512706
-6.45863e-08
-6.75119e-07
0.0532683
-3.69768e-08
0.0532683
5.80983e-07
0.0532682
3.66004e-08
-5.80723e-07
0.0553251
-1.5751e-07
0.0553252
4.84395e-07
0.0553251
1.57233e-07
-4.84216e-07
0.0574421
-1.75398e-07
0.0574421
4.35274e-07
0.0574421
1.75017e-07
-4.3499e-07
0.0596196
-9.6413e-08
0.0596196
4.57672e-07
0.0596197
9.61453e-08
-4.57486e-07
0.0618581
4.66582e-08
0.061858
5.21775e-07
0.0618582
-4.70621e-08
-5.2145e-07
0.064157
1.62921e-07
0.064157
5.38819e-07
0.0641571
-1.63205e-07
-5.38599e-07
0.0665154
2.12921e-07
0.0665154
5.16406e-07
0.0665155
-2.13332e-07
-5.16055e-07
0.0689314
2.24725e-07
0.0689314
5.22777e-07
0.0689314
-2.2501e-07
-5.22539e-07
0.0714021
2.11508e-07
0.0714021
5.43463e-07
0.0714021
-2.11894e-07
-5.4312e-07
0.0739234
1.87676e-07
0.0739234
5.5539e-07
0.0739234
-1.87948e-07
-5.55149e-07
0.0764892
1.6548e-07
0.0764892
5.50977e-07
0.0764892
-1.65769e-07
-5.50713e-07
0.0790913
1.47589e-07
0.0790913
5.27774e-07
0.0790913
-1.47773e-07
-5.27607e-07
0.0817187
1.32296e-07
0.0817188
4.78271e-07
0.0817188
-1.32404e-07
-4.78173e-07
0.0843579
1.09301e-07
0.084358
3.84187e-07
0.0843579
-1.09287e-07
-3.84205e-07
0.0869924
6.73516e-08
0.0869925
2.24501e-07
0.0869925
-6.72692e-08
-2.24583e-07
0.0896039
0.0896041
0.0896041
)
;

boundaryField
{
    inlet
    {
        type            cyclic;
        value           nonuniform List<scalar> 
50
(
-0.0896038
-0.0869923
-0.0843579
-0.0817187
-0.0790913
-0.0764892
-0.0739234
-0.0714021
-0.0689314
-0.0665154
-0.0641572
-0.0618582
-0.0596197
-0.057442
-0.055325
-0.0532681
-0.0512706
-0.0493312
-0.047449
-0.0456223
-0.0438497
-0.0421293
-0.0404595
-0.0388382
-0.0372626
-0.035729
-0.034234
-0.0327753
-0.0313503
-0.0299563
-0.0285904
-0.0272492
-0.0259288
-0.0246249
-0.0233326
-0.0220462
-0.0207594
-0.0194647
-0.0181531
-0.0168144
-0.0154365
-0.014006
-0.0125082
-0.0109224
-0.00923067
-0.00744932
-0.00564514
-0.00389904
-0.00225704
-0.000728964
)
;
    }
    outlet
    {
        type            cyclic;
        value           nonuniform List<scalar> 
50
(
0.0896038
0.0869923
0.0843579
0.0817187
0.0790913
0.0764892
0.0739234
0.0714021
0.0689314
0.0665154
0.0641572
0.0618582
0.0596197
0.057442
0.055325
0.0532681
0.0512706
0.0493312
0.047449
0.0456223
0.0438497
0.0421293
0.0404595
0.0388382
0.0372626
0.035729
0.034234
0.0327753
0.0313503
0.0299563
0.0285904
0.0272492
0.0259288
0.0246249
0.0233326
0.0220462
0.0207594
0.0194647
0.0181531
0.0168144
0.0154365
0.014006
0.0125082
0.0109224
0.00923067
0.00744932
0.00564514
0.00389904
0.00225704
0.000728964
)
;
    }
    fixedWalls-bottom
    {
        type            calculated;
        value           uniform 0;
    }
    fixedWalls-top
    {
        type            symmetry;
        value           uniform 0;
    }
    frontAndBack
    {
        type            empty;
        value           nonuniform List<scalar> 0();
    }
}


// ************************************************************************* //
