/*--------------------------------*- C++ -*----------------------------------*\
  =========                 |
  \\      /  F ield         | OpenFOAM: The Open Source CFD Toolbox
   \\    /   O peration     | Website:  https://openfoam.org
    \\  /    A nd           | Version:  10
     \\/     M anipulation  |
\*---------------------------------------------------------------------------*/
FoamFile
{
    format      ascii;
    class       volSymmTensorField;
    location    "341";
    object      R;
}
// * * * * * * * * * * * * * * * * * * * * * * * * * * * * * * * * * * * * * //

dimensions      [0 2 -2 0 0 0 0];

internalField   nonuniform List<symmTensor> 
200
(
(5.43082e-07 -3.57823e-09 -0 5.43082e-07 -0 5.43082e-07)
(5.43223e-07 -3.5792e-09 -0 5.43223e-07 -0 5.43223e-07)
(5.43399e-07 -3.58043e-09 -0 5.43399e-07 -0 5.43399e-07)
(5.43358e-07 -3.58014e-09 -0 5.43358e-07 -0 5.43358e-07)
(1.64037e-05 -6.29193e-07 -0 1.64037e-05 -0 1.64037e-05)
(1.6408e-05 -6.29365e-07 -0 1.6408e-05 -0 1.6408e-05)
(1.64133e-05 -6.29582e-07 -0 1.64133e-05 -0 1.64133e-05)
(1.6412e-05 -6.29531e-07 -0 1.6412e-05 -0 1.6412e-05)
(0.000118176 -1.31956e-05 -0 0.000118176 -0 0.000118176)
(0.000118207 -1.31994e-05 -0 0.000118207 -0 0.000118207)
(0.000118245 -1.32039e-05 -0 0.000118245 -0 0.000118245)
(0.000118236 -1.32028e-05 -0 0.000118236 -0 0.000118236)
(0.000428155 -9.40557e-05 -0 0.000428154 -0 0.000428155)
(0.000428272 -9.4087e-05 -0 0.000428272 -0 0.000428272)
(0.000428406 -9.4119e-05 -0 0.000428406 -0 0.000428406)
(0.000428371 -9.41098e-05 -0 0.000428371 -0 0.000428371)
(0.00103974 -0.000342143 -0 0.00103974 -0 0.00103974)
(0.00104003 -0.000342286 -0 0.00104003 -0 0.00104003)
(0.00104033 -0.000342391 -0 0.00104033 -0 0.00104033)
(0.00104024 -0.000342351 -0 0.00104024 -0 0.00104024)
(0.00189309 -0.0007711 -0 0.00189309 -0 0.00189309)
(0.00189357 -0.000771455 -0 0.00189357 -0 0.00189357)
(0.00189402 -0.000771644 -0 0.00189402 -0 0.00189402)
(0.00189385 -0.000771546 -0 0.00189385 -0 0.00189385)
(0.00279856 -0.00125883 -0 0.00279857 -0 0.00279857)
(0.0027991 -0.00125938 -0 0.00279911 -0 0.00279911)
(0.00279964 -0.0012596 -0 0.00279964 -0 0.00279964)
(0.00279936 -0.00125942 -0 0.00279935 -0 0.00279935)
(0.00360709 -0.0016773 -0 0.0036071 -0 0.0036071)
(0.00360754 -0.00167751 -0 0.00360755 -0 0.00360755)
(0.0036081 -0.00167776 -0 0.00360809 -0 0.00360809)
(0.00360764 -0.00167755 -0 0.00360764 -0 0.00360764)
(0.00427251 -0.00198672 -0 0.00427252 -0 0.00427251)
(0.00427291 -0.00198691 -0 0.00427292 -0 0.00427291)
(0.00427342 -0.00198714 -0 0.00427341 -0 0.00427341)
(0.00427271 -0.00198681 -0 0.0042727 -0 0.00427271)
(0.00480265 -0.00223325 -0 0.00480267 -0 0.00480266)
(0.00480302 -0.00223342 -0 0.00480303 -0 0.00480303)
(0.00480345 -0.00223362 -0 0.00480343 -0 0.00480344)
(0.00480247 -0.00223316 -0 0.00480246 -0 0.00480247)
(0.00521347 -0.00242438 -0 0.0052135 -0 0.00521349)
(0.00521384 -0.00242455 -0 0.00521385 -0 0.00521384)
(0.00521416 -0.00242469 -0 0.00521413 -0 0.00521414)
(0.00521296 -0.00242413 -0 0.00521294 -0 0.00521295)
(0.00552444 -0.00256934 -0 0.00552446 -0 0.00552445)
(0.00552484 -0.00256952 -0 0.00552486 -0 0.00552485)
(0.00552503 -0.0025696 -0 0.005525 -0 0.00552502)
(0.00552367 -0.00256898 -0 0.00552365 -0 0.00552366)
(0.00575393 -0.0026759 -0 0.00575395 -0 0.00575394)
(0.0057544 -0.00267612 -0 0.00575442 -0 0.00575441)
(0.00575445 -0.00267613 -0 0.00575442 -0 0.00575444)
(0.00575302 -0.00267548 -0 0.00575301 -0 0.00575302)
(0.00591763 -0.00275183 -0 0.00591765 -0 0.00591764)
(0.00591809 -0.00275204 -0 0.0059181 -0 0.0059181)
(0.00591804 -0.00275201 -0 0.00591802 -0 0.00591803)
(0.00591664 -0.00275137 -0 0.00591663 -0 0.00591664)
(0.00602805 -0.0028031 -0 0.00602807 -0 0.00602806)
(0.00602843 -0.00280327 -0 0.00602843 -0 0.00602843)
(0.00602838 -0.00280325 -0 0.00602836 -0 0.00602837)
(0.00602705 -0.00280263 -0 0.00602705 -0 0.00602705)
(0.00609505 -0.00283423 -0 0.00609507 -0 0.00609506)
(0.00609536 -0.00283437 -0 0.00609536 -0 0.00609536)
(0.00609531 -0.00283434 -0 0.00609529 -0 0.0060953)
(0.00609409 -0.00283378 -0 0.00609409 -0 0.00609409)
(0.00612636 -0.00284878 -0 0.00612638 -0 0.00612637)
(0.00612663 -0.0028489 -0 0.00612663 -0 0.00612663)
(0.00612657 -0.00284886 -0 0.00612655 -0 0.00612656)
(0.00612547 -0.00284836 -0 0.00612548 -0 0.00612547)
(0.00612803 -0.00284955 -0 0.00612805 -0 0.00612804)
(0.00612828 -0.00284966 -0 0.00612828 -0 0.00612828)
(0.00612819 -0.00284961 -0 0.00612817 -0 0.00612818)
(0.00612724 -0.00284918 -0 0.00612725 -0 0.00612724)
(0.00610483 -0.00283876 -0 0.00610485 -0 0.00610484)
(0.00610506 -0.00283886 -0 0.00610506 -0 0.00610506)
(0.00610495 -0.0028388 -0 0.00610493 -0 0.00610494)
(0.00610415 -0.00283844 -0 0.00610416 -0 0.00610416)
(0.00606055 -0.00281817 -0 0.00606057 -0 0.00606056)
(0.00606073 -0.00281824 -0 0.00606072 -0 0.00606072)
(0.00606061 -0.00281819 -0 0.00606059 -0 0.0060606)
(0.00606 -0.00281791 -0 0.00606001 -0 0.00606)
(0.00599825 -0.00278919 -0 0.00599827 -0 0.00599826)
(0.00599835 -0.00278924 -0 0.00599835 -0 0.00599835)
(0.00599824 -0.00278918 -0 0.00599822 -0 0.00599823)
(0.00599784 -0.002789 -0 0.00599784 -0 0.00599784)
(0.00592042 -0.00275301 -0 0.00592045 -0 0.00592043)
(0.0059205 -0.00275303 -0 0.00592049 -0 0.00592049)
(0.00592036 -0.00275296 -0 0.00592033 -0 0.00592035)
(0.00592018 -0.00275289 -0 0.00592018 -0 0.00592018)
(0.00582923 -0.0027106 -0 0.00582927 -0 0.00582925)
(0.00582926 -0.00271061 -0 0.00582924 -0 0.00582925)
(0.00582905 -0.0027105 -0 0.00582901 -0 0.00582903)
(0.00582913 -0.00271056 -0 0.00582915 -0 0.00582914)
(0.00572654 -0.00266285 -0 0.00572656 -0 0.00572655)
(0.00572648 -0.00266281 -0 0.00572643 -0 0.00572646)
(0.00572623 -0.0026627 -0 0.00572621 -0 0.00572622)
(0.00572648 -0.00266283 -0 0.00572652 -0 0.0057265)
(0.00561394 -0.00261048 -0 0.0056139 -0 0.00561392)
(0.00561382 -0.00261041 -0 0.00561373 -0 0.00561377)
(0.00561351 -0.0026103 -0 0.00561355 -0 0.00561352)
(0.00561387 -0.00261048 -0 0.00561396 -0 0.00561392)
(0.00549279 -0.00255412 -0 0.00549266 -0 0.00549272)
(0.0054926 -0.00255404 -0 0.00549248 -0 0.00549254)
(0.00549222 -0.00255392 -0 0.00549234 -0 0.00549229)
(0.00549265 -0.00255412 -0 0.00549277 -0 0.00549271)
(0.00536377 -0.00248905 -0 0.00536362 -0 0.00536369)
(0.00536359 -0.00248949 -0 0.00536344 -0 0.00536351)
(0.00536315 -0.0024895 -0 0.0053633 -0 0.00536323)
(0.00536366 -0.00249232 -0 0.00536381 -0 0.00536373)
(0.00522723 -0.00241829 -0 0.00522711 -0 0.00522718)
(0.00522708 -0.00241881 -0 0.00522694 -0 0.00522701)
(0.00522661 -0.00241898 -0 0.00522674 -0 0.00522667)
(0.00522721 -0.00242167 -0 0.00522735 -0 0.00522728)
(0.00508351 -0.00234543 -0 0.00508341 -0 0.00508346)
(0.0050834 -0.00234622 -0 0.00508325 -0 0.00508333)
(0.00508286 -0.00234652 -0 0.00508296 -0 0.00508291)
(0.00508353 -0.00234971 -0 0.00508368 -0 0.0050836)
(0.0049329 -0.00226921 -0 0.0049328 -0 0.00493285)
(0.00493281 -0.00226999 -0 0.00493266 -0 0.00493274)
(0.00493219 -0.00227061 -0 0.00493229 -0 0.00493225)
(0.00493292 -0.00227409 -0 0.00493307 -0 0.004933)
(0.00477567 -0.00218967 -0 0.00477559 -0 0.00477563)
(0.00477553 -0.00218943 -0 0.00477539 -0 0.00477546)
(0.00477492 -0.00219126 -0 0.004775 -0 0.00477496)
(0.00477569 -0.00219503 -0 0.00477583 -0 0.00477576)
(0.00461209 -0.00210661 -0 0.00461207 -0 0.00461208)
(0.00461192 -0.00210647 -0 0.00461181 -0 0.00461186)
(0.00461133 -0.00210806 -0 0.00461135 -0 0.00461134)
(0.00461214 -0.00211252 -0 0.00461225 -0 0.0046122)
(0.00444252 -0.00202026 -0 0.00444254 -0 0.00444254)
(0.0044423 -0.00201999 -0 0.00444227 -0 0.00444229)
(0.00444173 -0.00202131 -0 0.00444171 -0 0.00444171)
(0.00444263 -0.00202658 -0 0.00444266 -0 0.00444264)
(0.00426732 -0.00192966 -0 0.00426736 -0 0.00426734)
(0.00426715 -0.00193135 -0 0.00426718 -0 0.00426717)
(0.00426652 -0.00193103 -0 0.00426647 -0 0.0042665)
(0.0042675 -0.00193704 -0 0.00426747 -0 0.00426748)
(0.00408701 -0.00183802 -0 0.00408708 -0 0.00408704)
(0.00408685 -0.00183686 -0 0.00408692 -0 0.00408689)
(0.00408627 -0.00183928 -0 0.0040862 -0 0.00408624)
(0.0040872 -0.00184352 -0 0.00408713 -0 0.00408717)
(0.00390215 -0.00174141 -0 0.00390222 -0 0.00390219)
(0.00390202 -0.00174241 -0 0.00390208 -0 0.00390205)
(0.00390146 -0.00174228 -0 0.00390139 -0 0.00390141)
(0.00390229 -0.00174713 -0 0.00390223 -0 0.00390226)
(0.0037134 -0.00164193 -0 0.00371341 -0 0.0037134)
(0.00371324 -0.00164276 -0 0.00371327 -0 0.00371326)
(0.00371267 -0.00164275 -0 0.00371266 -0 0.00371266)
(0.00371343 -0.00164749 -0 0.00371339 -0 0.00371341)
(0.00352143 -0.00153914 -0 0.00352139 -0 0.00352141)
(0.00352128 -0.00154001 -0 0.00352127 -0 0.00352127)
(0.00352068 -0.00154005 -0 0.00352073 -0 0.00352071)
(0.00352138 -0.00154463 -0 0.00352139 -0 0.00352138)
(0.00332712 -0.00143217 -0 0.00332704 -0 0.00332708)
(0.00332701 -0.00143382 -0 0.00332698 -0 0.003327)
(0.00332638 -0.00143335 -0 0.00332645 -0 0.00332642)
(0.00332708 -0.00143874 -0 0.00332711 -0 0.0033271)
(0.00313172 -0.00132414 -0 0.00313165 -0 0.00313168)
(0.00313153 -0.00132303 -0 0.00313151 -0 0.00313152)
(0.00313098 -0.00132531 -0 0.00313104 -0 0.00313101)
(0.00313164 -0.00132871 -0 0.00313166 -0 0.00313165)
(0.00293655 -0.00121146 -0 0.00293652 -0 0.00293654)
(0.00293629 -0.00121034 -0 0.00293629 -0 0.0029363)
(0.00293587 -0.00121346 -0 0.0029359 -0 0.00293588)
(0.00293643 -0.00121556 -0 0.00293643 -0 0.00293642)
(0.00274334 -0.00109581 -0 0.00274334 -0 0.00274334)
(0.00274293 -0.00109435 -0 0.00274293 -0 0.00274293)
(0.00274272 -0.00109767 -0 0.00274272 -0 0.00274272)
(0.00274319 -0.00109945 -0 0.00274319 -0 0.00274319)
(0.00255426 -0.000976984 -0 0.00255427 -0 0.00255427)
(0.00255356 -0.000975308 -0 0.00255355 -0 0.00255355)
(0.00255364 -0.000978604 -0 0.00255363 -0 0.00255364)
(0.00255407 -0.000980302 -0 0.00255408 -0 0.00255408)
(0.002372 -0.000855107 -0 0.00237201 -0 0.00237201)
(0.00237116 -0.000853384 -0 0.00237115 -0 0.00237116)
(0.00237136 -0.000856483 -0 0.00237135 -0 0.00237135)
(0.00237178 -0.000858175 -0 0.00237178 -0 0.00237178)
(0.00219994 -0.000730337 -0 0.00219995 -0 0.00219995)
(0.00219909 -0.000728686 -0 0.00219909 -0 0.00219909)
(0.00219929 -0.00073147 -0 0.00219927 -0 0.00219928)
(0.00219969 -0.000733184 -0 0.00219969 -0 0.00219969)
(0.0020423 -0.000602862 -0 0.00204231 -0 0.00204231)
(0.00204155 -0.000601383 -0 0.00204156 -0 0.00204155)
(0.00204164 -0.000603762 -0 0.00204163 -0 0.00204163)
(0.00204203 -0.000605498 -0 0.00204203 -0 0.00204203)
(0.00190419 -0.000472883 -0 0.0019042 -0 0.0019042)
(0.00190369 -0.000471679 -0 0.00190371 -0 0.0019037)
(0.00190357 -0.000473567 -0 0.00190356 -0 0.00190356)
(0.00190397 -0.00047528 -0 0.00190395 -0 0.00190396)
(0.00179154 -0.000340532 -0 0.00179156 -0 0.00179155)
(0.00179103 -0.000339621 -0 0.00179107 -0 0.00179105)
(0.00179097 -0.000340992 -0 0.00179095 -0 0.00179095)
(0.00179143 -0.000342585 -0 0.00179139 -0 0.00179141)
(0.00171054 -0.000205708 -0 0.00171056 -0 0.00171055)
(0.00171033 -0.000205203 -0 0.00171039 -0 0.00171036)
(0.00171016 -0.000205961 -0 0.00171014 -0 0.00171014)
(0.00171083 -0.000207224 -0 0.00171077 -0 0.0017108)
(0.00166757 -6.8885e-05 -0 0.0016676 -0 0.00166759)
(0.00166751 -6.87808e-05 -0 0.00166759 -0 0.00166755)
(0.00166724 -6.8957e-05 -0 0.00166721 -0 0.00166722)
(0.00166802 -6.94897e-05 -0 0.00166795 -0 0.00166798)
)
;

boundaryField
{
    inlet
    {
        type            cyclic;
    }
    outlet
    {
        type            cyclic;
    }
    fixedWalls-bottom
    {
        type            kqRWallFunction;
        value           nonuniform List<symmTensor> 4((5.43082e-07 -0 -0 5.43082e-07 -0 5.43082e-07) (5.43223e-07 -0 -0 5.43223e-07 -0 5.43223e-07) (5.43399e-07 -0 -0 5.43399e-07 -0 5.43399e-07) (5.43358e-07 -0 -0 5.43358e-07 -0 5.43358e-07));
    }
    fixedWalls-top
    {
        type            symmetry;
    }
    frontAndBack
    {
        type            empty;
    }
}


// ************************************************************************* //
