/*--------------------------------*- C++ -*----------------------------------*\
  =========                 |
  \\      /  F ield         | OpenFOAM: The Open Source CFD Toolbox
   \\    /   O peration     | Website:  https://openfoam.org
    \\  /    A nd           | Version:  10
     \\/     M anipulation  |
\*---------------------------------------------------------------------------*/
FoamFile
{
    format      ascii;
    class       volVectorField;
    location    "341";
    object      U;
}
// * * * * * * * * * * * * * * * * * * * * * * * * * * * * * * * * * * * * * //

dimensions      [0 1 -1 0 0 0 0];

internalField   nonuniform List<vector> 
200
(
(0.0395623 -2.08783e-09 0)
(0.0395627 -7.42685e-11 0)
(0.0395635 8.83061e-10 0)
(0.0395632 1.90832e-10 0)
(0.119077 3.38304e-09 0)
(0.119078 -2.04699e-08 0)
(0.11908 -6.45643e-09 0)
(0.11908 2.07216e-08 0)
(0.199967 2.28099e-08 0)
(0.199969 -6.70221e-08 0)
(0.199973 -2.53992e-08 0)
(0.199972 6.74601e-08 0)
(0.281442 5.72955e-08 0)
(0.281445 -1.4891e-07 0)
(0.281451 -5.96065e-08 0)
(0.281449 1.49467e-07 0)
(0.361031 9.98181e-08 0)
(0.361035 -2.60506e-07 0)
(0.361042 -1.01913e-07 0)
(0.361039 2.6117e-07 0)
(0.434886 1.32825e-07 0)
(0.434891 -3.74984e-07 0)
(0.434897 -1.34741e-07 0)
(0.434893 3.75711e-07 0)
(0.500239 1.37948e-07 0)
(0.500241 -4.60231e-07 0)
(0.500246 -1.3973e-07 0)
(0.50024 4.6099e-07 0)
(0.556887 1.02434e-07 0)
(0.556888 -5.28531e-07 0)
(0.556891 -1.04111e-07 0)
(0.556884 5.29301e-07 0)
(0.60618 3.56799e-08 0)
(0.606183 -5.77417e-07 0)
(0.606185 -3.72424e-08 0)
(0.606176 5.78186e-07 0)
(0.649454 -5.21485e-08 0)
(0.649458 -6.3479e-07 0)
(0.649459 5.06839e-08 0)
(0.64945 6.3555e-07 0)
(0.687691 -1.45882e-07 0)
(0.687695 -6.97318e-07 0)
(0.687696 1.44517e-07 0)
(0.687688 6.98065e-07 0)
(0.721732 -2.33913e-07 0)
(0.721736 -7.55711e-07 0)
(0.721737 2.32629e-07 0)
(0.72173 7.56443e-07 0)
(0.752289 -3.09724e-07 0)
(0.752292 -8.01993e-07 0)
(0.752292 3.08521e-07 0)
(0.752287 8.02703e-07 0)
(0.779949 -3.71494e-07 0)
(0.779951 -8.32469e-07 0)
(0.779951 3.70357e-07 0)
(0.779947 8.33159e-07 0)
(0.80519 -4.21937e-07 0)
(0.805191 -8.47346e-07 0)
(0.80519 4.20864e-07 0)
(0.805188 8.4801e-07 0)
(0.828398 -4.64557e-07 0)
(0.828399 -8.50621e-07 0)
(0.828398 4.63537e-07 0)
(0.828397 8.51264e-07 0)
(0.849892 -5.03637e-07 0)
(0.849893 -8.46706e-07 0)
(0.849892 5.02673e-07 0)
(0.84989 8.47321e-07 0)
(0.869931 -5.40156e-07 0)
(0.869932 -8.38921e-07 0)
(0.86993 5.39239e-07 0)
(0.869929 8.39512e-07 0)
(0.888728 -5.73858e-07 0)
(0.888729 -8.29504e-07 0)
(0.888728 5.7299e-07 0)
(0.888727 8.30064e-07 0)
(0.906461 -6.0571e-07 0)
(0.906462 -8.20711e-07 0)
(0.90646 6.04884e-07 0)
(0.90646 8.21246e-07 0)
(0.923273 -6.40441e-07 0)
(0.923274 -8.14462e-07 0)
(0.923272 6.39659e-07 0)
(0.923272 8.14964e-07 0)
(0.939282 -6.86474e-07 0)
(0.939284 -8.09096e-07 0)
(0.939282 6.85736e-07 0)
(0.939281 8.09569e-07 0)
(0.954585 -7.47812e-07 0)
(0.954586 -7.95416e-07 0)
(0.954583 7.4712e-07 0)
(0.954583 7.95856e-07 0)
(0.969258 -8.04458e-07 0)
(0.969258 -7.52635e-07 0)
(0.969254 8.03812e-07 0)
(0.969256 7.53056e-07 0)
(0.983364 -7.9826e-07 0)
(0.983363 -6.61025e-07 0)
(0.983357 7.97659e-07 0)
(0.983365 6.61432e-07 0)
(0.996963 -6.73468e-07 0)
(0.99696 -5.17528e-07 0)
(0.996954 6.7291e-07 0)
(0.99697 5.17858e-07 0)
(1.01013 -5.19776e-07 0)
(1.01013 -3.31992e-07 0)
(1.01012 5.1925e-07 0)
(1.01014 3.32291e-07 0)
(1.02295 -3.1466e-07 0)
(1.02294 -1.45311e-07 0)
(1.02294 3.14183e-07 0)
(1.02295 1.45629e-07 0)
(1.03545 -1.67043e-07 0)
(1.03545 4.3743e-08 0)
(1.03544 1.66591e-07 0)
(1.03545 -4.34513e-08 0)
(1.04767 -3.27481e-08 0)
(1.04767 2.42862e-07 0)
(1.04766 3.23292e-08 0)
(1.04767 -2.42622e-07 0)
(1.05962 6.79279e-08 0)
(1.05961 4.52125e-07 0)
(1.05961 -6.83323e-08 0)
(1.05962 -4.51892e-07 0)
(1.0713 1.38528e-07 0)
(1.0713 6.31373e-07 0)
(1.0713 -1.38909e-07 0)
(1.0713 -6.31129e-07 0)
(1.08273 1.3242e-07 0)
(1.08273 7.20301e-07 0)
(1.08273 -1.32795e-07 0)
(1.08273 -7.20081e-07 0)
(1.0939 1.07624e-07 0)
(1.09391 7.2511e-07 0)
(1.09391 -1.07963e-07 0)
(1.0939 -7.24861e-07 0)
(1.10482 -1.80874e-08 0)
(1.10483 6.36032e-07 0)
(1.10483 1.77388e-08 0)
(1.10482 -6.3581e-07 0)
(1.11547 -8.51698e-08 0)
(1.11548 5.24062e-07 0)
(1.11548 8.48566e-08 0)
(1.11547 -5.23864e-07 0)
(1.12585 -1.68934e-07 0)
(1.12585 4.44355e-07 0)
(1.12585 1.68619e-07 0)
(1.12585 -4.44126e-07 0)
(1.13594 -1.38102e-07 0)
(1.13593 4.35008e-07 0)
(1.13593 1.37791e-07 0)
(1.13594 -4.34779e-07 0)
(1.14571 -2.66488e-08 0)
(1.1457 4.8608e-07 0)
(1.14571 2.63351e-08 0)
(1.14571 -4.85828e-07 0)
(1.15514 9.03786e-08 0)
(1.15513 5.18124e-07 0)
(1.15514 -9.07336e-08 0)
(1.15514 -5.17872e-07 0)
(1.1642 1.97575e-07 0)
(1.16419 5.48792e-07 0)
(1.1642 -1.97908e-07 0)
(1.16419 -5.48435e-07 0)
(1.17283 2.30302e-07 0)
(1.17282 5.30821e-07 0)
(1.17283 -2.30638e-07 0)
(1.17282 -5.30495e-07 0)
(1.18097 2.20861e-07 0)
(1.18097 5.34056e-07 0)
(1.18097 -2.21206e-07 0)
(1.18097 -5.33762e-07 0)
(1.18857 1.96854e-07 0)
(1.18857 5.5012e-07 0)
(1.18857 -1.97205e-07 0)
(1.18857 -5.49839e-07 0)
(1.19552 1.71426e-07 0)
(1.19552 5.56479e-07 0)
(1.19552 -1.71733e-07 0)
(1.19552 -5.56242e-07 0)
(1.2017 1.49965e-07 0)
(1.2017 5.45472e-07 0)
(1.2017 -1.50215e-07 0)
(1.2017 -5.45272e-07 0)
(1.20699 1.32434e-07 0)
(1.20699 5.12332e-07 0)
(1.20699 -1.3258e-07 0)
(1.20699 -5.12205e-07 0)
(1.21121 1.10234e-07 0)
(1.21121 4.41743e-07 0)
(1.21121 -1.10273e-07 0)
(1.21121 -4.41701e-07 0)
(1.21419 8.74232e-08 0)
(1.2142 3.14683e-07 0)
(1.2142 -8.73379e-08 0)
(1.21419 -3.14704e-07 0)
(1.21576 4.18042e-08 0)
(1.21576 1.16738e-07 0)
(1.21576 -4.17752e-08 0)
(1.21576 -1.16796e-07 0)
)
;

boundaryField
{
    inlet
    {
        type            cyclic;
    }
    outlet
    {
        type            cyclic;
    }
    fixedWalls-bottom
    {
        type            noSlip;
    }
    fixedWalls-top
    {
        type            symmetry;
    }
    frontAndBack
    {
        type            empty;
    }
}


// ************************************************************************* //
