/*--------------------------------*- C++ -*----------------------------------*\
  =========                 |
  \\      /  F ield         | OpenFOAM: The Open Source CFD Toolbox
   \\    /   O peration     | Website:  https://openfoam.org
    \\  /    A nd           | Version:  10
     \\/     M anipulation  |
\*---------------------------------------------------------------------------*/
FoamFile
{
    format      ascii;
    class       volScalarField;
    location    "2500";
    object      omega;
}
// * * * * * * * * * * * * * * * * * * * * * * * * * * * * * * * * * * * * * //

dimensions      [0 0 -1 0 0 0 0];

internalField   nonuniform List<scalar> 
400
(
1315.23
1315.23
1315.23
1315.23
263.582
263.582
263.581
263.581
108.572
108.572
108.572
108.572
59.098
59.098
59.0983
59.0981
38.4984
38.4984
38.4984
38.4982
28.1114
28.1115
28.1114
28.1109
22.0739
22.0739
22.0738
22.0732
18.1887
18.1887
18.1886
18.1878
15.4984
15.4984
15.4983
15.4974
13.5318
13.5317
13.5316
13.5306
12.0336
12.0336
12.0335
12.0324
10.8551
10.8551
10.855
10.8539
9.90396
9.90388
9.90378
9.90266
9.12
9.11993
9.1198
9.11869
8.46255
8.46248
8.46234
8.46124
7.90308
7.90301
7.90286
7.90177
7.42101
7.42094
7.42078
7.41971
7.00115
7.00107
7.00091
6.99986
6.63203
6.63195
6.63179
6.63075
6.30483
6.30475
6.30459
6.30357
6.01267
6.01259
6.01243
6.01143
5.7501
5.75002
5.74986
5.74888
5.51274
5.51266
5.5125
5.51154
5.29703
5.29695
5.29679
5.29585
5.10006
5.09998
5.09983
5.0989
4.91941
4.91933
4.91919
4.91827
4.75308
4.753
4.75286
4.75196
4.59935
4.59928
4.59914
4.59826
4.45681
4.45674
4.4566
4.45574
4.3242
4.32416
4.32401
4.32317
4.20049
4.20047
4.20032
4.19949
4.08478
4.08479
4.08462
4.0838
3.97628
3.9763
3.97612
3.97532
3.87429
3.87433
3.87414
3.87334
3.77822
3.77825
3.77807
3.77728
3.68753
3.68756
3.68738
3.6866
3.60175
3.60179
3.6016
3.60084
3.52047
3.52051
3.52033
3.51957
3.44333
3.44336
3.44318
3.44244
3.36999
3.37002
3.36984
3.36911
3.30016
3.30019
3.30001
3.29929
3.23357
3.2336
3.23343
3.23272
3.17
3.17002
3.16986
3.16916
3.10922
3.10924
3.10908
3.10839
3.05104
3.05107
3.05091
3.05023
2.99529
2.99532
2.99516
2.99449
2.94181
2.94184
2.94169
2.94102
2.89046
2.89048
2.89033
2.88968
2.8411
2.84112
2.84098
2.84033
2.79361
2.79362
2.79349
2.79286
2.74789
2.74789
2.74777
2.74715
2.70383
2.70382
2.70372
2.7031
2.66136
2.66133
2.66123
2.66062
2.62037
2.62033
2.62024
2.61963
2.58079
2.58074
2.58065
2.58005
2.54254
2.54249
2.5424
2.54181
2.50556
2.50552
2.50543
2.50484
2.4698
2.46975
2.46967
2.46908
2.43519
2.43515
2.43506
2.43449
2.4017
2.40165
2.40156
2.40099
2.36926
2.36921
2.36913
2.36856
2.33783
2.33779
2.33771
2.33715
2.30739
2.30734
2.30726
2.30671
2.27789
2.27784
2.27776
2.27721
2.24929
2.24924
2.24916
2.24862
2.22157
2.22153
2.22145
2.22091
2.1947
2.19466
2.19458
2.19405
2.16865
2.16861
2.16853
2.16801
2.14341
2.14336
2.14329
2.14277
2.11894
2.1189
2.11882
2.11831
2.09523
2.09519
2.09512
2.09461
2.07227
2.07223
2.07215
2.07165
2.05004
2.05
2.04992
2.04942
2.02852
2.02848
2.0284
2.02791
2.0077
2.00767
2.00759
2.0071
1.98759
1.98755
1.98748
1.98699
1.96815
1.96813
1.96805
1.96757
1.9494
1.94938
1.9493
1.94882
1.93133
1.93131
1.93123
1.93075
1.91393
1.91391
1.91383
1.91336
1.89721
1.89719
1.89711
1.89664
1.88115
1.88114
1.88106
1.88059
1.86578
1.86576
1.86568
1.86522
1.85108
1.85107
1.85099
1.85053
1.83708
1.83706
1.83698
1.83652
1.82376
1.82375
1.82367
1.82321
1.81115
1.81114
1.81106
1.81061
1.79926
1.79924
1.79917
1.79872
1.7881
1.78808
1.78801
1.78756
1.77768
1.77767
1.7776
1.77715
1.76804
1.76802
1.76795
1.7675
1.75918
1.75916
1.75909
1.75865
1.75113
1.75111
1.75104
1.7506
1.74393
1.7439
1.74384
1.7434
1.73759
1.73756
1.7375
1.73706
1.73216
1.73213
1.73207
1.73164
1.72768
1.72765
1.72759
1.72715
1.72418
1.72415
1.72409
1.72365
1.72171
1.72168
1.72163
1.72118
1.72033
1.72029
1.72024
1.71979
)
;

boundaryField
{
    inlet
    {
        type            cyclic;
    }
    outlet
    {
        type            cyclic;
    }
    fixedWalls-bottom
    {
        beta1           0.075;
        blended         0;
        type            omegaWallFunction;
        value           uniform 1315.23;
    }
    fixedWalls-top
    {
        type            symmetry;
    }
    frontAndBack
    {
        type            empty;
    }
}


// ************************************************************************* //
