/*--------------------------------*- C++ -*----------------------------------*\
  =========                 |
  \\      /  F ield         | OpenFOAM: The Open Source CFD Toolbox
   \\    /   O peration     | Website:  https://openfoam.org
    \\  /    A nd           | Version:  10
     \\/     M anipulation  |
\*---------------------------------------------------------------------------*/
FoamFile
{
    format      ascii;
    class       volSymmTensorField;
    location    "2500";
    object      R;
}
// * * * * * * * * * * * * * * * * * * * * * * * * * * * * * * * * * * * * * //

dimensions      [0 2 -2 0 0 0 0];

internalField   nonuniform List<symmTensor> 
400
(
(0.000112615 -9.3814e-06 -0 0.000112615 -0 0.000112615)
(0.000112614 -9.38127e-06 -0 0.000112614 -0 0.000112614)
(0.0001126 -9.3799e-06 -0 0.0001126 -0 0.0001126)
(0.000112602 -9.38006e-06 -0 0.000112602 -0 0.000112602)
(0.00302069 -0.000939934 -0 0.00302069 -0 0.00302069)
(0.00302065 -0.000939921 -0 0.00302065 -0 0.00302065)
(0.00302031 -0.000939808 -0 0.00302031 -0 0.00302031)
(0.00302036 -0.000939825 -0 0.00302036 -0 0.00302036)
(0.010151 -0.00412671 -0 0.010151 -0 0.010151)
(0.0101508 -0.00412664 -0 0.0101508 -0 0.0101508)
(0.01015 -0.00412634 -0 0.01015 -0 0.01015)
(0.0101501 -0.00412642 -0 0.0101502 -0 0.0101501)
(0.0150631 -0.00554855 -0 0.0150631 -0 0.0150631)
(0.0150629 -0.00554843 -0 0.0150629 -0 0.0150629)
(0.0150617 -0.00554812 -0 0.0150617 -0 0.0150617)
(0.0150619 -0.00554827 -0 0.0150619 -0 0.0150619)
(0.0188809 -0.0060078 -0 0.0188809 -0 0.0188809)
(0.0188806 -0.00600765 -0 0.0188806 -0 0.0188806)
(0.0188791 -0.00600735 -0 0.0188791 -0 0.0188791)
(0.0188794 -0.00600758 -0 0.0188794 -0 0.0188794)
(0.0221481 -0.00616066 -0 0.0221481 -0 0.0221481)
(0.0221477 -0.0061605 -0 0.0221477 -0 0.0221477)
(0.0221458 -0.00616022 -0 0.0221458 -0 0.0221458)
(0.0221462 -0.00616052 -0 0.0221463 -0 0.0221463)
(0.0250583 -0.00620789 -0 0.0250583 -0 0.0250583)
(0.0250578 -0.00620775 -0 0.0250578 -0 0.0250578)
(0.0250557 -0.00620748 -0 0.0250557 -0 0.0250557)
(0.0250562 -0.00620783 -0 0.0250562 -0 0.0250562)
(0.0277093 -0.0062128 -0 0.0277093 -0 0.0277093)
(0.0277087 -0.00621269 -0 0.0277087 -0 0.0277087)
(0.0277064 -0.00621241 -0 0.0277064 -0 0.0277064)
(0.0277069 -0.00621284 -0 0.0277069 -0 0.0277069)
(0.030161 -0.00619761 -0 0.030161 -0 0.030161)
(0.0301603 -0.00619755 -0 0.0301603 -0 0.0301603)
(0.0301578 -0.00619725 -0 0.0301578 -0 0.0301578)
(0.0301584 -0.00619774 -0 0.0301584 -0 0.0301584)
(0.0324539 -0.00617143 -0 0.0324539 -0 0.0324539)
(0.0324532 -0.00617141 -0 0.0324532 -0 0.0324532)
(0.0324505 -0.0061711 -0 0.0324505 -0 0.0324505)
(0.0324511 -0.00617164 -0 0.0324511 -0 0.0324511)
(0.0346167 -0.00613857 -0 0.0346167 -0 0.0346167)
(0.034616 -0.00613858 -0 0.034616 -0 0.034616)
(0.0346131 -0.00613826 -0 0.0346131 -0 0.0346131)
(0.0346138 -0.00613885 -0 0.0346138 -0 0.0346138)
(0.0366707 -0.00610133 -0 0.0366707 -0 0.0366707)
(0.03667 -0.00610135 -0 0.0366699 -0 0.03667)
(0.0366668 -0.00610104 -0 0.0366668 -0 0.0366668)
(0.0366675 -0.00610166 -0 0.0366676 -0 0.0366676)
(0.0386319 -0.00606104 -0 0.0386318 -0 0.0386319)
(0.0386311 -0.00606108 -0 0.038631 -0 0.0386311)
(0.0386278 -0.00606077 -0 0.0386278 -0 0.0386278)
(0.0386285 -0.00606143 -0 0.0386285 -0 0.0386285)
(0.0405126 -0.00601856 -0 0.0405126 -0 0.0405126)
(0.0405118 -0.0060186 -0 0.0405117 -0 0.0405118)
(0.0405083 -0.0060183 -0 0.0405083 -0 0.0405083)
(0.040509 -0.00601899 -0 0.040509 -0 0.040509)
(0.0423226 -0.00597443 -0 0.0423226 -0 0.0423226)
(0.0423219 -0.00597448 -0 0.0423218 -0 0.0423219)
(0.0423182 -0.00597418 -0 0.0423182 -0 0.0423182)
(0.0423189 -0.0059749 -0 0.0423189 -0 0.0423189)
(0.0440699 -0.00592904 -0 0.0440699 -0 0.0440699)
(0.0440692 -0.00592909 -0 0.0440691 -0 0.0440692)
(0.0440653 -0.00592881 -0 0.0440653 -0 0.0440653)
(0.044066 -0.00592954 -0 0.044066 -0 0.044066)
(0.0457608 -0.00588266 -0 0.0457608 -0 0.0457608)
(0.0457601 -0.00588272 -0 0.04576 -0 0.04576)
(0.045756 -0.00588244 -0 0.045756 -0 0.045756)
(0.0457567 -0.0058832 -0 0.0457567 -0 0.0457567)
(0.0474005 -0.00583549 -0 0.0474005 -0 0.0474005)
(0.0473998 -0.00583555 -0 0.0473997 -0 0.0473997)
(0.0473955 -0.00583529 -0 0.0473955 -0 0.0473955)
(0.0473962 -0.00583606 -0 0.0473962 -0 0.0473962)
(0.0489934 -0.00578769 -0 0.0489934 -0 0.0489934)
(0.0489926 -0.00578775 -0 0.0489926 -0 0.0489926)
(0.0489882 -0.00578749 -0 0.0489882 -0 0.0489882)
(0.0489889 -0.00578828 -0 0.0489889 -0 0.0489889)
(0.050543 -0.00573935 -0 0.050543 -0 0.050543)
(0.0505422 -0.00573942 -0 0.0505422 -0 0.0505422)
(0.0505376 -0.00573916 -0 0.0505377 -0 0.0505376)
(0.0505383 -0.00573997 -0 0.0505384 -0 0.0505383)
(0.0520525 -0.00569058 -0 0.0520525 -0 0.0520525)
(0.0520517 -0.00569064 -0 0.0520517 -0 0.0520517)
(0.0520469 -0.00569039 -0 0.0520469 -0 0.0520469)
(0.0520476 -0.00569121 -0 0.0520476 -0 0.0520476)
(0.0535244 -0.00564142 -0 0.0535243 -0 0.0535243)
(0.0535236 -0.00564148 -0 0.0535235 -0 0.0535235)
(0.0535186 -0.00564124 -0 0.0535187 -0 0.0535186)
(0.0535193 -0.00564208 -0 0.0535193 -0 0.0535193)
(0.0549608 -0.00559193 -0 0.0549608 -0 0.0549608)
(0.05496 -0.005592 -0 0.05496 -0 0.05496)
(0.054955 -0.00559175 -0 0.054955 -0 0.054955)
(0.0549556 -0.00559261 -0 0.0549557 -0 0.0549556)
(0.0563638 -0.00554215 -0 0.0563638 -0 0.0563638)
(0.056363 -0.00554222 -0 0.056363 -0 0.056363)
(0.0563578 -0.00554197 -0 0.0563578 -0 0.0563578)
(0.0563585 -0.00554284 -0 0.0563585 -0 0.0563585)
(0.057735 -0.00549211 -0 0.0577349 -0 0.057735)
(0.0577341 -0.00549218 -0 0.0577341 -0 0.0577341)
(0.0577288 -0.00549193 -0 0.0577288 -0 0.0577288)
(0.0577294 -0.00549281 -0 0.0577294 -0 0.0577294)
(0.0590756 -0.00544182 -0 0.0590756 -0 0.0590756)
(0.0590748 -0.00544189 -0 0.0590748 -0 0.0590748)
(0.0590692 -0.00544164 -0 0.0590693 -0 0.0590692)
(0.0590699 -0.00544254 -0 0.0590699 -0 0.0590699)
(0.060387 -0.0053913 -0 0.0603869 -0 0.0603869)
(0.0603861 -0.00539137 -0 0.0603861 -0 0.0603861)
(0.0603804 -0.00539112 -0 0.0603804 -0 0.0603804)
(0.0603811 -0.00539203 -0 0.0603811 -0 0.0603811)
(0.0616701 -0.00534056 -0 0.0616701 -0 0.0616701)
(0.0616692 -0.00534062 -0 0.0616692 -0 0.0616692)
(0.0616634 -0.00534037 -0 0.0616634 -0 0.0616634)
(0.061664 -0.0053413 -0 0.061664 -0 0.061664)
(0.0629259 -0.0052896 -0 0.0629259 -0 0.0629259)
(0.062925 -0.00528965 -0 0.062925 -0 0.062925)
(0.0629191 -0.00528941 -0 0.0629191 -0 0.0629191)
(0.0629197 -0.00529034 -0 0.0629197 -0 0.0629197)
(0.0641551 -0.00523843 -0 0.0641551 -0 0.0641551)
(0.0641542 -0.00523846 -0 0.0641543 -0 0.0641543)
(0.0641482 -0.00523823 -0 0.0641482 -0 0.0641482)
(0.0641488 -0.00523917 -0 0.0641488 -0 0.0641488)
(0.0653585 -0.00518706 -0 0.0653585 -0 0.0653585)
(0.0653576 -0.00518704 -0 0.0653577 -0 0.0653576)
(0.0653514 -0.00518683 -0 0.0653514 -0 0.0653514)
(0.065352 -0.00518778 -0 0.065352 -0 0.065352)
(0.0665367 -0.00513546 -0 0.0665367 -0 0.0665367)
(0.0665358 -0.0051354 -0 0.0665358 -0 0.0665358)
(0.0665294 -0.00513521 -0 0.0665294 -0 0.0665294)
(0.06653 -0.00513616 -0 0.06653 -0 0.06653)
(0.0676901 -0.00508361 -0 0.0676901 -0 0.0676901)
(0.0676892 -0.00508353 -0 0.0676892 -0 0.0676892)
(0.0676827 -0.00508335 -0 0.0676827 -0 0.0676827)
(0.0676833 -0.00508431 -0 0.0676833 -0 0.0676833)
(0.0688193 -0.00503152 -0 0.0688192 -0 0.0688192)
(0.0688183 -0.00503142 -0 0.0688183 -0 0.0688183)
(0.0688117 -0.00503125 -0 0.0688117 -0 0.0688117)
(0.0688123 -0.00503222 -0 0.0688123 -0 0.0688123)
(0.0699245 -0.00497917 -0 0.0699245 -0 0.0699245)
(0.0699235 -0.00497907 -0 0.0699236 -0 0.0699235)
(0.0699168 -0.0049789 -0 0.0699168 -0 0.0699168)
(0.0699174 -0.00497987 -0 0.0699174 -0 0.0699174)
(0.0710062 -0.00492655 -0 0.0710062 -0 0.0710062)
(0.0710052 -0.00492645 -0 0.0710053 -0 0.0710052)
(0.0709984 -0.00492628 -0 0.0709984 -0 0.0709984)
(0.070999 -0.00492725 -0 0.070999 -0 0.070999)
(0.0720647 -0.00487365 -0 0.0720647 -0 0.0720647)
(0.0720637 -0.00487355 -0 0.0720637 -0 0.0720637)
(0.0720567 -0.00487338 -0 0.0720567 -0 0.0720567)
(0.0720573 -0.00487436 -0 0.0720573 -0 0.0720573)
(0.0731002 -0.00482046 -0 0.0731002 -0 0.0731002)
(0.0730991 -0.00482036 -0 0.0730992 -0 0.0730991)
(0.0730921 -0.00482018 -0 0.0730921 -0 0.0730921)
(0.0730927 -0.00482117 -0 0.0730926 -0 0.0730927)
(0.0741129 -0.00476695 -0 0.0741129 -0 0.0741129)
(0.0741118 -0.00476685 -0 0.0741119 -0 0.0741119)
(0.0741047 -0.00476668 -0 0.0741047 -0 0.0741047)
(0.0741053 -0.00476766 -0 0.0741052 -0 0.0741052)
(0.075103 -0.00471312 -0 0.075103 -0 0.075103)
(0.075102 -0.00471302 -0 0.075102 -0 0.075102)
(0.0750947 -0.00471284 -0 0.0750947 -0 0.0750947)
(0.0750953 -0.00471383 -0 0.0750952 -0 0.0750953)
(0.0760708 -0.00465895 -0 0.0760708 -0 0.0760708)
(0.0760697 -0.00465884 -0 0.0760698 -0 0.0760697)
(0.0760623 -0.00465866 -0 0.0760623 -0 0.0760623)
(0.0760629 -0.00465965 -0 0.0760629 -0 0.0760629)
(0.0770163 -0.0046044 -0 0.0770163 -0 0.0770163)
(0.0770152 -0.00460429 -0 0.0770153 -0 0.0770152)
(0.0770077 -0.00460411 -0 0.0770077 -0 0.0770077)
(0.0770083 -0.0046051 -0 0.0770082 -0 0.0770083)
(0.0779397 -0.00454947 -0 0.0779397 -0 0.0779397)
(0.0779386 -0.00454936 -0 0.0779386 -0 0.0779386)
(0.077931 -0.00454918 -0 0.077931 -0 0.077931)
(0.0779316 -0.00455017 -0 0.0779315 -0 0.0779315)
(0.0788411 -0.00449414 -0 0.0788411 -0 0.0788411)
(0.0788399 -0.00449403 -0 0.07884 -0 0.07884)
(0.0788322 -0.00449384 -0 0.0788323 -0 0.0788323)
(0.0788328 -0.00449483 -0 0.0788327 -0 0.0788328)
(0.0797206 -0.00443838 -0 0.0797205 -0 0.0797205)
(0.0797194 -0.00443826 -0 0.0797194 -0 0.0797194)
(0.0797116 -0.00443808 -0 0.0797116 -0 0.0797116)
(0.0797122 -0.00443906 -0 0.0797121 -0 0.0797121)
(0.0805782 -0.00438217 -0 0.0805782 -0 0.0805782)
(0.080577 -0.00438205 -0 0.0805771 -0 0.080577)
(0.0805691 -0.00438186 -0 0.0805691 -0 0.0805691)
(0.0805697 -0.00438285 -0 0.0805696 -0 0.0805696)
(0.0814141 -0.00432549 -0 0.0814141 -0 0.0814141)
(0.0814128 -0.00432537 -0 0.0814129 -0 0.0814129)
(0.0814049 -0.00432518 -0 0.0814049 -0 0.0814049)
(0.0814054 -0.00432616 -0 0.0814054 -0 0.0814054)
(0.0822282 -0.00426832 -0 0.0822282 -0 0.0822282)
(0.082227 -0.0042682 -0 0.0822271 -0 0.082227)
(0.0822189 -0.004268 -0 0.0822189 -0 0.0822189)
(0.0822195 -0.00426898 -0 0.0822194 -0 0.0822195)
(0.0830208 -0.00421063 -0 0.0830208 -0 0.0830208)
(0.0830195 -0.00421051 -0 0.0830196 -0 0.0830196)
(0.0830114 -0.00421031 -0 0.0830114 -0 0.0830114)
(0.0830119 -0.00421129 -0 0.0830119 -0 0.0830119)
(0.0837918 -0.0041524 -0 0.0837918 -0 0.0837918)
(0.0837905 -0.00415228 -0 0.0837906 -0 0.0837905)
(0.0837822 -0.00415208 -0 0.0837822 -0 0.0837822)
(0.0837828 -0.00415305 -0 0.0837827 -0 0.0837828)
(0.0845412 -0.0040936 -0 0.0845412 -0 0.0845412)
(0.0845399 -0.0040935 -0 0.08454 -0 0.0845399)
(0.0845316 -0.00409328 -0 0.0845316 -0 0.0845316)
(0.0845322 -0.00409425 -0 0.0845321 -0 0.0845321)
(0.0852692 -0.00403421 -0 0.0852692 -0 0.0852692)
(0.0852678 -0.00403414 -0 0.0852679 -0 0.0852679)
(0.0852594 -0.0040339 -0 0.0852594 -0 0.0852594)
(0.08526 -0.00403486 -0 0.0852599 -0 0.08526)
(0.0859757 -0.00397419 -0 0.0859757 -0 0.0859757)
(0.0859743 -0.00397415 -0 0.0859744 -0 0.0859744)
(0.0859659 -0.0039739 -0 0.0859659 -0 0.0859659)
(0.0859665 -0.00397486 -0 0.0859663 -0 0.0859664)
(0.0866608 -0.00391355 -0 0.0866608 -0 0.0866608)
(0.0866594 -0.00391353 -0 0.0866596 -0 0.0866595)
(0.0866509 -0.00391327 -0 0.0866509 -0 0.0866509)
(0.0866515 -0.00391422 -0 0.0866514 -0 0.0866514)
(0.0873246 -0.00385226 -0 0.0873246 -0 0.0873246)
(0.0873232 -0.00385224 -0 0.0873233 -0 0.0873233)
(0.0873146 -0.00385197 -0 0.0873146 -0 0.0873146)
(0.0873152 -0.00385292 -0 0.0873151 -0 0.0873152)
(0.0879672 -0.00379027 -0 0.0879671 -0 0.0879672)
(0.0879657 -0.00379025 -0 0.0879659 -0 0.0879658)
(0.087957 -0.00378999 -0 0.0879571 -0 0.0879571)
(0.0879577 -0.00379092 -0 0.0879575 -0 0.0879576)
(0.0885885 -0.00372758 -0 0.0885884 -0 0.0885885)
(0.088587 -0.00372755 -0 0.0885871 -0 0.0885871)
(0.0885782 -0.00372729 -0 0.0885783 -0 0.0885783)
(0.0885789 -0.00372821 -0 0.0885787 -0 0.0885788)
(0.0891886 -0.00366413 -0 0.0891886 -0 0.0891886)
(0.0891871 -0.00366411 -0 0.0891872 -0 0.0891872)
(0.0891783 -0.00366385 -0 0.0891783 -0 0.0891783)
(0.0891789 -0.00366476 -0 0.0891788 -0 0.0891788)
(0.0897676 -0.00359992 -0 0.0897676 -0 0.0897676)
(0.0897661 -0.0035999 -0 0.0897662 -0 0.0897662)
(0.0897572 -0.00359963 -0 0.0897572 -0 0.0897572)
(0.0897578 -0.00360054 -0 0.0897577 -0 0.0897578)
(0.0903256 -0.00353491 -0 0.0903255 -0 0.0903255)
(0.090324 -0.00353489 -0 0.0903242 -0 0.0903241)
(0.0903151 -0.00353463 -0 0.0903151 -0 0.0903151)
(0.0903157 -0.00353552 -0 0.0903156 -0 0.0903156)
(0.0908626 -0.00346908 -0 0.0908625 -0 0.0908626)
(0.090861 -0.00346905 -0 0.0908612 -0 0.0908611)
(0.090852 -0.00346879 -0 0.090852 -0 0.090852)
(0.0908526 -0.00346967 -0 0.0908525 -0 0.0908526)
(0.0913787 -0.00340239 -0 0.0913787 -0 0.0913787)
(0.0913771 -0.00340237 -0 0.0913773 -0 0.0913772)
(0.091368 -0.00340211 -0 0.0913681 -0 0.0913681)
(0.0913687 -0.00340297 -0 0.0913686 -0 0.0913686)
(0.091874 -0.00333483 -0 0.091874 -0 0.091874)
(0.0918724 -0.0033348 -0 0.0918726 -0 0.0918725)
(0.0918633 -0.00333454 -0 0.0918633 -0 0.0918633)
(0.0918639 -0.00333539 -0 0.0918638 -0 0.0918639)
(0.0923487 -0.00326635 -0 0.0923486 -0 0.0923486)
(0.0923471 -0.00326632 -0 0.0923472 -0 0.0923471)
(0.0923379 -0.00326607 -0 0.0923379 -0 0.0923379)
(0.0923385 -0.0032669 -0 0.0923384 -0 0.0923384)
(0.0928027 -0.00319693 -0 0.0928027 -0 0.0928027)
(0.0928011 -0.0031969 -0 0.0928012 -0 0.0928012)
(0.0927918 -0.00319665 -0 0.0927919 -0 0.0927919)
(0.0927925 -0.00319747 -0 0.0927924 -0 0.0927924)
(0.0932363 -0.00312654 -0 0.0932363 -0 0.0932363)
(0.0932347 -0.00312652 -0 0.0932348 -0 0.0932348)
(0.0932254 -0.00312627 -0 0.0932254 -0 0.0932254)
(0.093226 -0.00312708 -0 0.0932259 -0 0.093226)
(0.0936496 -0.00305516 -0 0.0936496 -0 0.0936496)
(0.093648 -0.00305513 -0 0.0936481 -0 0.093648)
(0.0936386 -0.00305489 -0 0.0936386 -0 0.0936386)
(0.0936393 -0.00305568 -0 0.0936391 -0 0.0936392)
(0.0940427 -0.00298275 -0 0.0940427 -0 0.0940427)
(0.0940411 -0.00298272 -0 0.0940412 -0 0.0940411)
(0.0940316 -0.00298248 -0 0.0940317 -0 0.0940317)
(0.0940323 -0.00298325 -0 0.0940322 -0 0.0940322)
(0.0944158 -0.00290927 -0 0.0944158 -0 0.0944158)
(0.0944141 -0.00290925 -0 0.0944143 -0 0.0944142)
(0.0944047 -0.00290901 -0 0.0944047 -0 0.0944047)
(0.0944053 -0.00290977 -0 0.0944052 -0 0.0944053)
(0.0947691 -0.00283471 -0 0.094769 -0 0.0947691)
(0.0947674 -0.00283468 -0 0.0947675 -0 0.0947674)
(0.0947578 -0.00283445 -0 0.0947579 -0 0.0947579)
(0.0947585 -0.00283519 -0 0.0947584 -0 0.0947585)
(0.0951027 -0.00275903 -0 0.0951026 -0 0.0951027)
(0.095101 -0.002759 -0 0.0951011 -0 0.095101)
(0.0950914 -0.00275877 -0 0.0950914 -0 0.0950914)
(0.0950921 -0.00275949 -0 0.0950919 -0 0.095092)
(0.0954168 -0.00268219 -0 0.0954168 -0 0.0954168)
(0.0954151 -0.00268216 -0 0.0954152 -0 0.0954152)
(0.0954055 -0.00268194 -0 0.0954055 -0 0.0954055)
(0.0954062 -0.00268264 -0 0.095406 -0 0.0954061)
(0.0957118 -0.00260416 -0 0.0957117 -0 0.0957117)
(0.09571 -0.00260413 -0 0.0957101 -0 0.0957101)
(0.0957003 -0.00260392 -0 0.0957004 -0 0.0957004)
(0.095701 -0.0026046 -0 0.0957009 -0 0.095701)
(0.0959877 -0.00252492 -0 0.0959877 -0 0.0959877)
(0.0959859 -0.00252489 -0 0.095986 -0 0.095986)
(0.0959762 -0.00252468 -0 0.0959763 -0 0.0959762)
(0.0959769 -0.00252535 -0 0.0959768 -0 0.0959768)
(0.0962449 -0.00244443 -0 0.0962449 -0 0.0962449)
(0.0962431 -0.00244439 -0 0.0962432 -0 0.0962432)
(0.0962334 -0.00244419 -0 0.0962334 -0 0.0962334)
(0.0962341 -0.00244484 -0 0.0962339 -0 0.096234)
(0.0964837 -0.00236265 -0 0.0964836 -0 0.0964837)
(0.0964819 -0.00236261 -0 0.096482 -0 0.0964819)
(0.0964721 -0.00236242 -0 0.0964721 -0 0.0964721)
(0.0964728 -0.00236305 -0 0.0964727 -0 0.0964727)
(0.0967043 -0.00227956 -0 0.0967043 -0 0.0967043)
(0.0967025 -0.00227952 -0 0.0967026 -0 0.0967025)
(0.0966927 -0.00227933 -0 0.0966927 -0 0.0966927)
(0.0966934 -0.00227994 -0 0.0966932 -0 0.0966933)
(0.0969071 -0.00219511 -0 0.0969071 -0 0.0969071)
(0.0969053 -0.00219507 -0 0.0969054 -0 0.0969053)
(0.0968954 -0.00219489 -0 0.0968955 -0 0.0968954)
(0.0968961 -0.00219547 -0 0.096896 -0 0.0968961)
(0.0970925 -0.00210928 -0 0.0970924 -0 0.0970925)
(0.0970906 -0.00210923 -0 0.0970907 -0 0.0970907)
(0.0970807 -0.00210906 -0 0.0970808 -0 0.0970807)
(0.0970814 -0.00210962 -0 0.0970813 -0 0.0970814)
(0.0972607 -0.00202202 -0 0.0972607 -0 0.0972607)
(0.0972589 -0.00202198 -0 0.097259 -0 0.0972589)
(0.0972489 -0.00202181 -0 0.097249 -0 0.097249)
(0.0972496 -0.00202235 -0 0.0972495 -0 0.0972496)
(0.0974123 -0.00193331 -0 0.0974123 -0 0.0974123)
(0.0974104 -0.00193326 -0 0.0974106 -0 0.0974105)
(0.0974005 -0.0019331 -0 0.0974005 -0 0.0974005)
(0.0974012 -0.00193362 -0 0.0974011 -0 0.0974011)
(0.0975477 -0.0018431 -0 0.0975476 -0 0.0975476)
(0.0975457 -0.00184305 -0 0.0975459 -0 0.0975458)
(0.0975357 -0.0018429 -0 0.0975358 -0 0.0975358)
(0.0975365 -0.0018434 -0 0.0975363 -0 0.0975364)
(0.0976672 -0.00175136 -0 0.0976672 -0 0.0976672)
(0.0976653 -0.00175132 -0 0.0976654 -0 0.0976654)
(0.0976553 -0.00175117 -0 0.0976553 -0 0.0976553)
(0.097656 -0.00175165 -0 0.0976559 -0 0.0976559)
(0.0977715 -0.00165806 -0 0.0977715 -0 0.0977715)
(0.0977696 -0.00165802 -0 0.0977697 -0 0.0977696)
(0.0977595 -0.00165788 -0 0.0977596 -0 0.0977595)
(0.0977602 -0.00165833 -0 0.0977601 -0 0.0977602)
(0.0978611 -0.00156315 -0 0.097861 -0 0.0978611)
(0.0978591 -0.00156311 -0 0.0978592 -0 0.0978592)
(0.097849 -0.00156298 -0 0.0978491 -0 0.097849)
(0.0978497 -0.0015634 -0 0.0978496 -0 0.0978497)
(0.0979365 -0.00146661 -0 0.0979364 -0 0.0979365)
(0.0979345 -0.00146656 -0 0.0979346 -0 0.0979346)
(0.0979244 -0.00146644 -0 0.0979244 -0 0.0979244)
(0.0979251 -0.00146684 -0 0.097925 -0 0.097925)
(0.0979984 -0.00136838 -0 0.0979983 -0 0.0979983)
(0.0979964 -0.00136834 -0 0.0979965 -0 0.0979964)
(0.0979862 -0.00136822 -0 0.0979862 -0 0.0979862)
(0.0979869 -0.00136859 -0 0.0979868 -0 0.0979868)
(0.0980474 -0.00126843 -0 0.0980473 -0 0.0980474)
(0.0980454 -0.00126839 -0 0.0980455 -0 0.0980455)
(0.0980351 -0.00126828 -0 0.0980352 -0 0.0980352)
(0.0980359 -0.00126863 -0 0.0980358 -0 0.0980358)
(0.0980843 -0.00116673 -0 0.0980842 -0 0.0980842)
(0.0980823 -0.00116669 -0 0.0980824 -0 0.0980823)
(0.098072 -0.00116658 -0 0.098072 -0 0.098072)
(0.0980727 -0.0011669 -0 0.0980726 -0 0.0980726)
(0.0981098 -0.00106322 -0 0.0981097 -0 0.0981098)
(0.0981078 -0.00106319 -0 0.0981079 -0 0.0981078)
(0.0980974 -0.00106309 -0 0.0980975 -0 0.0980975)
(0.0980982 -0.00106338 -0 0.098098 -0 0.0980981)
(0.0981248 -0.000957875 -0 0.0981247 -0 0.0981247)
(0.0981228 -0.000957843 -0 0.0981229 -0 0.0981228)
(0.0981123 -0.000957749 -0 0.0981124 -0 0.0981124)
(0.0981131 -0.000958014 -0 0.098113 -0 0.098113)
(0.0981301 -0.000850642 -0 0.0981301 -0 0.0981301)
(0.0981281 -0.00085061 -0 0.0981282 -0 0.0981282)
(0.0981176 -0.000850525 -0 0.0981177 -0 0.0981177)
(0.0981184 -0.00085076 -0 0.0981183 -0 0.0981183)
(0.0981268 -0.000741472 -0 0.0981268 -0 0.0981268)
(0.0981248 -0.000741441 -0 0.0981249 -0 0.0981249)
(0.0981142 -0.000741365 -0 0.0981143 -0 0.0981143)
(0.098115 -0.00074157 -0 0.0981149 -0 0.0981149)
(0.0981159 -0.000630312 -0 0.0981158 -0 0.0981159)
(0.0981139 -0.00063028 -0 0.098114 -0 0.0981139)
(0.0981032 -0.000630214 -0 0.0981033 -0 0.0981032)
(0.0981039 -0.000630389 -0 0.0981038 -0 0.0981039)
(0.0980984 -0.000517097 -0 0.0980983 -0 0.0980984)
(0.0980964 -0.000517065 -0 0.0980965 -0 0.0980965)
(0.0980856 -0.000517009 -0 0.0980857 -0 0.0980857)
(0.0980864 -0.000517153 -0 0.0980863 -0 0.0980863)
(0.0980756 -0.000401753 -0 0.0980755 -0 0.0980755)
(0.0980736 -0.00040172 -0 0.0980737 -0 0.0980736)
(0.0980627 -0.000401674 -0 0.0980628 -0 0.0980627)
(0.0980634 -0.000401787 -0 0.0980633 -0 0.0980634)
(0.0980486 -0.000284191 -0 0.0980486 -0 0.0980486)
(0.0980466 -0.000284158 -0 0.0980467 -0 0.0980467)
(0.0980356 -0.000284122 -0 0.0980357 -0 0.0980357)
(0.0980364 -0.000284204 -0 0.0980363 -0 0.0980363)
(0.0980188 -0.000164272 -0 0.0980187 -0 0.0980188)
(0.0980168 -0.000164242 -0 0.0980169 -0 0.0980169)
(0.0980057 -0.000164217 -0 0.0980058 -0 0.0980058)
(0.0980064 -0.000164266 -0 0.0980063 -0 0.0980064)
(0.0979875 -4.18996e-05 -0 0.0979874 -0 0.0979874)
(0.0979855 -4.18777e-05 -0 0.0979856 -0 0.0979855)
(0.0979742 -4.18675e-05 -0 0.0979743 -0 0.0979743)
(0.0979749 -4.18795e-05 -0 0.0979749 -0 0.0979749)
(0.0979558 9.92431e-06 -0 0.0979557 -0 0.0979558)
(0.0979538 9.93212e-06 -0 0.0979539 -0 0.0979539)
(0.0979425 9.93333e-06 -0 0.0979426 -0 0.0979425)
(0.0979432 9.93708e-06 -0 0.0979431 -0 0.0979431)
)
;

boundaryField
{
    inlet
    {
        type            cyclic;
    }
    outlet
    {
        type            cyclic;
    }
    fixedWalls-bottom
    {
        type            kqRWallFunction;
        value           nonuniform List<symmTensor> 4((0.000112615 -0 -0 0.000112615 -0 0.000112615) (0.000112614 -0 -0 0.000112614 -0 0.000112614) (0.0001126 -0 -0 0.0001126 -0 0.0001126) (0.000112602 -0 -0 0.000112602 -0 0.000112602));
    }
    fixedWalls-top
    {
        type            symmetry;
    }
    frontAndBack
    {
        type            empty;
    }
}


// ************************************************************************* //
