/*--------------------------------*- C++ -*----------------------------------*\
  =========                 |
  \\      /  F ield         | OpenFOAM: The Open Source CFD Toolbox
   \\    /   O peration     | Website:  https://openfoam.org
    \\  /    A nd           | Version:  10
     \\/     M anipulation  |
\*---------------------------------------------------------------------------*/
FoamFile
{
    format      ascii;
    class       volScalarField;
    location    "3508";
    object      nut;
}
// * * * * * * * * * * * * * * * * * * * * * * * * * * * * * * * * * * * * * //

dimensions      [0 2 -1 0 0 0 0];

internalField   nonuniform List<scalar> 
400
(
1.05084e-13
1.05073e-13
1.05074e-13
1.05087e-13
1.84372e-11
1.84353e-11
1.84354e-11
1.84376e-11
3.88044e-10
3.88004e-10
3.88008e-10
3.88056e-10
3.00292e-09
3.00261e-09
3.00265e-09
3.00303e-09
1.37347e-08
1.37333e-08
1.37334e-08
1.37352e-08
4.58301e-08
4.58253e-08
4.58259e-08
4.58318e-08
1.24209e-07
1.24197e-07
1.24198e-07
1.24214e-07
2.9062e-07
2.9059e-07
2.90594e-07
2.90631e-07
6.09503e-07
6.0944e-07
6.0945e-07
6.09528e-07
1.17427e-06
1.17415e-06
1.17417e-06
1.17432e-06
2.11342e-06
2.1132e-06
2.11324e-06
2.11351e-06
3.5956e-06
3.59524e-06
3.59531e-06
3.59578e-06
5.83256e-06
5.83198e-06
5.83211e-06
5.83289e-06
9.07838e-06
9.07748e-06
9.07772e-06
9.07895e-06
1.36237e-05
1.36224e-05
1.36228e-05
1.36247e-05
1.97835e-05
1.97817e-05
1.97823e-05
1.97852e-05
2.78787e-05
2.78762e-05
2.78773e-05
2.78815e-05
3.82111e-05
3.82077e-05
3.82096e-05
3.82155e-05
5.10349e-05
5.10306e-05
5.10335e-05
5.10418e-05
6.65284e-05
6.65232e-05
6.65275e-05
6.65389e-05
8.477e-05
8.47638e-05
8.47699e-05
8.47853e-05
0.000105722
0.000105715
0.000105724
0.000105744
0.00012923
0.000129221
0.000129233
0.000129259
0.000155025
0.000155016
0.00015503
0.000155064
0.000182752
0.000182742
0.000182759
0.000182801
0.00021199
0.00021198
0.000211999
0.000212051
0.000239123
0.000239103
0.000239106
0.000239139
0.000264764
0.000264743
0.000264745
0.000264779
0.000290903
0.000290881
0.000290882
0.000290918
0.000317488
0.000317465
0.000317466
0.000317504
0.000344392
0.000344367
0.000344368
0.000344408
0.000371487
0.000371461
0.000371462
0.000371503
0.000398651
0.000398624
0.000398624
0.000398667
0.000425769
0.000425742
0.000425742
0.000425786
0.000452739
0.000452711
0.000452712
0.000452756
0.000479472
0.000479443
0.000479443
0.000479488
0.000505896
0.000505867
0.000505867
0.000505912
0.00053197
0.000531941
0.000531941
0.000531985
0.000557695
0.000557666
0.000557666
0.000557709
0.000583135
0.000583106
0.000583105
0.000583146
0.000608435
0.000608405
0.000608404
0.000608441
0.000633841
0.000633811
0.000633808
0.00063384
0.000659701
0.00065967
0.000659664
0.000659691
0.00068636
0.000686328
0.000686321
0.000686354
0.000713079
0.000713057
0.000713083
0.000713263
0.000730834
0.000730813
0.000730837
0.000731015
0.000747972
0.000747952
0.000747975
0.000748149
0.000764621
0.000764602
0.000764624
0.000764791
0.000780914
0.000780893
0.000780916
0.000781076
0.000796984
0.00079696
0.000796988
0.000797138
0.000812963
0.000812935
0.00081297
0.000813108
0.000828968
0.000828943
0.000828976
0.000829106
0.000845094
0.000845074
0.000845104
0.000845227
0.000861411
0.000861393
0.00086142
0.000861535
0.000877948
0.000877933
0.000877957
0.000878064
0.000894706
0.000894693
0.000894711
0.000894813
0.000911653
0.000911647
0.000911654
0.000911752
0.000928735
0.000928736
0.000928739
0.000928832
0.000945896
0.000945897
0.0009459
0.000945986
0.00096306
0.000963061
0.000963064
0.000963142
0.000980152
0.000980151
0.000980155
0.000980227
0.000997101
0.000997095
0.000997102
0.000997167
0.00101384
0.00101383
0.00101384
0.0010139
0.0010303
0.0010303
0.00103031
0.00103036
0.00104646
0.00104646
0.00104646
0.00104652
0.00106228
0.00106227
0.00106228
0.00106233
0.00107773
0.00107773
0.00107774
0.00107779
0.00109284
0.00109284
0.00109285
0.0010929
0.00110761
0.00110761
0.00110763
0.00110768
0.00112209
0.00112209
0.00112213
0.00112218
0.00113634
0.00113636
0.00113641
0.00113645
0.00115047
0.00115051
0.0011506
0.00115061
0.0011646
0.0011647
0.00116482
0.00116478
0.00117886
0.00117911
0.00117921
0.00117909
0.00119327
0.00119363
0.00119379
0.00119374
0.00120683
0.00120721
0.00120739
0.00120747
0.0012192
0.00121952
0.00121959
0.00121982
0.00123013
0.00123033
0.00123035
0.00123073
0.00123967
0.00123984
0.00123985
0.00124032
0.00124802
0.00124821
0.00124819
0.00124877
0.00125525
0.00125549
0.00125544
0.00125614
0.00126138
0.00126176
0.00126166
0.00126254
0.00126693
0.00126701
0.00126705
0.00126799
0.00127132
0.00127157
0.00127158
0.00127261
0.00127483
0.00127523
0.00127531
0.00127653
0.00127827
0.00127784
0.00127866
0.00127973
0.00128067
0.0012809
0.0012811
0.00128244
0.00128267
0.0012828
0.00128324
0.0012847
0.0012844
0.00128371
0.00128469
0.00128672
0.00128575
0.00128505
0.00128582
0.00128843
0.00128708
0.00128587
0.00128816
0.00128957
0.00128817
0.00128687
0.0012897
0.00129088
0.00128922
0.00128781
0.00129102
0.00129223
0.00129033
0.00128879
0.00129233
0.00129365
0.00129155
0.00128987
0.00129374
0.00129517
0.00129287
0.00129104
0.00129524
0.00129676
0.00129406
0.00129212
0.00129661
0.00129824
0.00129486
0.00129289
0.00129755
0.0012994
0.00129558
0.00129376
0.00129834
0.00130069
0.0012967
0.00129548
0.00129951
0.00130283
)
;

boundaryField
{
    inlet
    {
        type            cyclic;
    }
    outlet
    {
        type            cyclic;
    }
    fixedWalls-bottom
    {
        type            nutkWallFunction;
        Cmu             0.09;
        kappa           0.41;
        E               9.8;
        value           uniform 0;
    }
    fixedWalls-top
    {
        type            symmetry;
    }
    frontAndBack
    {
        type            empty;
    }
}


// ************************************************************************* //
