/*--------------------------------*- C++ -*----------------------------------*\
  =========                 |
  \\      /  F ield         | OpenFOAM: The Open Source CFD Toolbox
   \\    /   O peration     | Website:  https://openfoam.org
    \\  /    A nd           | Version:  10
     \\/     M anipulation  |
\*---------------------------------------------------------------------------*/
FoamFile
{
    format      ascii;
    class       surfaceScalarField;
    location    "3508";
    object      phi;
}
// * * * * * * * * * * * * * * * * * * * * * * * * * * * * * * * * * * * * * //

dimensions      [0 3 -1 0 0 0 0];

internalField   nonuniform List<scalar> 
696
(
8.14936e-05
-1.89065e-10
8.14936e-05
8.76446e-12
8.14934e-05
1.86539e-10
-8.75064e-12
0.000248325
-6.89776e-10
0.000248325
4.17838e-11
0.000248325
6.87208e-10
-4.17478e-11
0.000421413
-1.46029e-09
0.000421413
1.05309e-10
0.000421413
1.45775e-09
-1.05251e-10
0.000600924
-2.45983e-09
0.000600924
2.06091e-10
0.000600923
2.45725e-09
-2.0601e-10
0.000787024
-3.64347e-09
0.000787024
3.52085e-10
0.000787023
3.64092e-09
-3.5198e-10
0.000979884
-4.9626e-09
0.000979883
5.52755e-10
0.000979882
4.96002e-09
-5.52627e-10
0.00117967
-6.36424e-09
0.00117967
8.1898e-10
0.00117967
6.36169e-09
-8.18827e-10
0.00138656
-7.79152e-09
0.00138656
1.16308e-09
0.00138656
7.78893e-09
-1.1629e-09
0.00160071
-9.18314e-09
0.00160071
1.59822e-09
0.00160071
9.18059e-09
-1.59802e-09
0.00182228
-1.04742e-08
0.00182227
2.13791e-09
0.00182227
1.04717e-08
-2.13768e-09
0.0020514
-1.15963e-08
0.0020514
2.79462e-09
0.0020514
1.15938e-08
-2.79437e-09
0.0022882
-1.2479e-08
0.0022882
3.57858e-09
0.0022882
1.24764e-08
-3.5783e-09
0.00253277
-1.30512e-08
0.00253277
4.49564e-09
0.00253277
1.30487e-08
-4.49533e-09
0.00278515
-1.3245e-08
0.00278515
5.54563e-09
0.00278515
1.32424e-08
-5.54529e-09
0.00304536
-1.29997e-08
0.00304536
6.72035e-09
0.00304536
1.29971e-08
-6.71998e-09
0.00331334
-1.22695e-08
0.00331334
8.00294e-09
0.00331334
1.22669e-08
-8.00254e-09
0.00358899
-1.10329e-08
0.00358899
9.36834e-09
0.00358899
1.10304e-08
-9.36791e-09
0.00387213
-9.30584e-09
0.00387213
1.07869e-08
0.00387214
9.30327e-09
-1.07865e-08
0.00416255
-7.15581e-09
0.00416255
1.22302e-08
0.00416255
7.15327e-09
-1.22297e-08
0.00445996
-4.71898e-09
0.00445996
1.36797e-08
0.00445997
4.71642e-09
-1.36792e-08
0.00476408
-2.21482e-09
0.00476408
1.5137e-08
0.00476408
2.21227e-09
-1.51365e-08
0.0050746
4.14755e-11
0.0050746
1.66352e-08
0.0050746
-4.40439e-11
-1.66346e-08
0.00539122
1.63387e-09
0.00539122
1.82473e-08
0.00539122
-1.63642e-09
-1.82467e-08
0.00571369
2.04777e-09
0.00571369
2.00943e-08
0.00571369
-2.05034e-09
-2.00936e-08
0.00604179
6.82678e-10
0.00604179
2.23484e-08
0.00604179
-6.85231e-10
-2.23477e-08
0.00637539
-3.12737e-09
0.00637539
2.52371e-08
0.00637538
3.12479e-09
-2.52364e-08
0.00671464
-8.32437e-09
0.00671464
2.80814e-08
0.00671463
8.32181e-09
-2.80807e-08
0.00705991
-1.34239e-08
0.0070599
3.00991e-08
0.0070599
1.34213e-08
-3.00983e-08
0.00741137
-1.83323e-08
0.00741137
3.13752e-08
0.00741136
1.83297e-08
-3.13743e-08
0.00776907
-2.30267e-08
0.00776907
3.20317e-08
0.00776906
2.30241e-08
-3.20308e-08
0.00813305
-2.74989e-08
0.00813305
3.21951e-08
0.00813305
2.74963e-08
-3.21942e-08
0.00850339
-3.17464e-08
0.00850339
3.19954e-08
0.00850339
3.17438e-08
-3.19945e-08
0.00888016
-3.5765e-08
0.00888016
3.15668e-08
0.00888016
3.57624e-08
-3.15658e-08
0.00926347
-3.95412e-08
0.00926347
3.10489e-08
0.00926346
3.95386e-08
-3.10479e-08
0.00965342
-4.30424e-08
0.00965342
3.05879e-08
0.00965341
4.30398e-08
-3.05869e-08
0.0100501
-4.62068e-08
0.0100501
3.03366e-08
0.0100501
4.62042e-08
-3.03355e-08
0.0104537
-4.89276e-08
0.0104537
3.04517e-08
0.0104537
4.8925e-08
-3.04506e-08
0.0108644
-5.1033e-08
0.0108644
3.10884e-08
0.0108644
5.10303e-08
-3.10872e-08
0.0112822
-5.22551e-08
0.0112822
3.23857e-08
0.0112822
5.22524e-08
-3.23845e-08
0.0117073
-5.21822e-08
0.0117073
3.44374e-08
0.0117073
5.21795e-08
-3.44361e-08
0.0121397
-5.02063e-08
0.0121397
3.72438e-08
0.0121397
5.02036e-08
-3.72425e-08
0.0125797
-4.54752e-08
0.0125797
4.06384e-08
0.0125797
4.54724e-08
-4.06371e-08
0.0130272
-3.68836e-08
0.0130272
4.41778e-08
0.0130272
3.68809e-08
-4.41764e-08
0.0134823
-2.3572e-08
0.0134822
4.71199e-08
0.0134823
2.35692e-08
-4.71184e-08
0.0139448
-1.0408e-08
0.0139448
4.97624e-08
0.0139448
1.04052e-08
-4.97609e-08
0.0144155
-2.03019e-09
0.0144155
5.23936e-08
0.0144156
2.02735e-09
-5.2392e-08
0.0148951
2.55748e-09
0.0148951
5.42721e-08
0.0148951
-2.56034e-09
-5.42704e-08
0.0153836
4.27856e-09
0.0153836
5.49497e-08
0.0153836
-4.28146e-09
-5.49481e-08
0.0158812
3.93408e-09
0.0158812
5.42246e-08
0.0158812
-3.937e-09
-5.42229e-08
0.016388
2.10423e-09
0.016388
5.21104e-08
0.016388
-2.10719e-09
-5.21086e-08
0.016904
-8.93282e-10
0.016904
4.87951e-08
0.016904
8.90292e-10
-4.87932e-08
0.0174293
-4.75551e-09
0.0174293
4.45386e-08
0.0174293
4.75247e-09
-4.45366e-08
0.0179639
-9.12397e-09
0.0179639
3.96234e-08
0.0179639
9.1209e-09
-3.96214e-08
0.0185079
-1.37405e-08
0.0185079
3.43214e-08
0.0185079
1.37373e-08
-3.43194e-08
0.0190613
-1.84144e-08
0.0190613
2.88449e-08
0.0190613
1.84112e-08
-2.88427e-08
0.019624
-2.29592e-08
0.019624
2.33392e-08
0.019624
2.29559e-08
-2.33371e-08
0.0201961
-2.70943e-08
0.0201961
1.7846e-08
0.0201961
2.70911e-08
-1.78437e-08
0.0207775
-3.06495e-08
0.0207775
1.25275e-08
0.0207775
3.06462e-08
-1.25251e-08
0.0213681
-3.36614e-08
0.0213681
7.63163e-09
0.0213681
3.36581e-08
-7.6292e-09
0.0219681
-3.61725e-08
0.0219681
3.28051e-09
0.0219681
3.6169e-08
-3.278e-09
0.0225773
-3.82073e-08
0.0225773
-4.71114e-10
0.0225773
3.82038e-08
4.73711e-10
0.0231958
-3.97825e-08
0.0231958
-3.67111e-09
0.0231958
3.97789e-08
3.6738e-09
0.0238235
-4.09151e-08
0.0238235
-6.30983e-09
0.0238235
4.09115e-08
6.31261e-09
0.0244604
-4.15418e-08
0.0244604
-8.35215e-09
0.0244604
4.15381e-08
8.35502e-09
0.0251064
-4.1461e-08
0.0251064
-9.89725e-09
0.0251064
4.14572e-08
9.90022e-09
0.0257616
-4.04681e-08
0.0257616
-1.11386e-08
0.0257616
4.04642e-08
1.11416e-08
0.0264257
-3.82464e-08
0.0264257
-1.23858e-08
0.0264258
3.82425e-08
1.2389e-08
0.0270989
-3.44631e-08
0.0270989
-1.40541e-08
0.0270989
3.44591e-08
1.40574e-08
0.0277809
-2.90669e-08
0.0277809
-1.67452e-08
0.0277809
2.90628e-08
1.67486e-08
0.0284717
-2.24353e-08
0.0284717
-2.11683e-08
0.0284717
2.24311e-08
2.11718e-08
0.0291711
-1.52049e-08
0.0291711
-2.78078e-08
0.0291711
1.52006e-08
2.78114e-08
0.0298789
-8.08847e-09
0.0298789
-3.63526e-08
0.0298789
8.08403e-09
3.63564e-08
0.030595
-1.47219e-09
0.030595
-4.50718e-08
0.030595
1.46764e-09
4.50757e-08
0.031319
6.84259e-09
0.031319
-5.06348e-08
0.031319
-6.84728e-09
5.06389e-08
0.0320508
1.60484e-08
0.0320508
-4.78311e-08
0.0320508
-1.60532e-08
4.78354e-08
0.0327901
2.0699e-08
0.0327901
-3.35732e-08
0.0327901
-2.0704e-08
3.35777e-08
0.0335366
2.02459e-08
0.0335366
-1.20526e-08
0.0335366
-2.0251e-08
1.20572e-08
0.0342902
1.75587e-08
0.0342902
9.18502e-09
0.0342902
-1.75641e-08
-9.18018e-09
0.0350507
1.47039e-08
0.0350507
2.66148e-08
0.0350507
-1.47094e-08
-2.66097e-08
0.0358177
1.3485e-08
0.0358177
4.07003e-08
0.0358177
-1.34906e-08
-4.0695e-08
0.0365909
1.48408e-08
0.0365909
5.29761e-08
0.0365909
-1.48466e-08
-5.29707e-08
0.03737
1.89618e-08
0.03737
6.66797e-08
0.03737
-1.89678e-08
-6.66741e-08
0.0381545
2.48965e-08
0.0381545
8.00063e-08
0.0381545
-2.49027e-08
-8.00004e-08
0.0389439
3.36657e-08
0.0389439
9.1408e-08
0.0389439
-3.36721e-08
-9.14019e-08
0.0397376
4.54818e-08
0.0397376
1.06806e-07
0.0397376
-4.54884e-08
-1.068e-07
0.0405351
5.18024e-08
0.0405351
1.26176e-07
0.0405351
-5.18093e-08
-1.2617e-07
0.0413356
5.87926e-08
0.0413356
1.47606e-07
0.0413356
-5.87997e-08
-1.47599e-07
0.0421384
7.94166e-08
0.0421383
1.73805e-07
0.0421384
-7.94239e-08
-1.73798e-07
0.0429426
1.03264e-07
0.0429426
1.96962e-07
0.0429426
-1.03271e-07
-1.96954e-07
0.0437474
1.22314e-07
0.0437474
2.00976e-07
0.0437474
-1.22322e-07
-2.00968e-07
0.0445517
1.38005e-07
0.0445517
1.91203e-07
0.0445518
-1.38013e-07
-1.91196e-07
0.0453546
1.49124e-07
0.0453546
1.81367e-07
0.0453546
-1.49132e-07
-1.81359e-07
0.0461548
1.54343e-07
0.0461548
1.72269e-07
0.0461548
-1.54351e-07
-1.72262e-07
0.0469512
1.52355e-07
0.0469512
1.61481e-07
0.0469512
-1.52362e-07
-1.61474e-07
0.0477423
1.42835e-07
0.0477423
1.46719e-07
0.0477423
-1.42841e-07
-1.46713e-07
0.0485269
1.26149e-07
0.0485269
1.26864e-07
0.0485269
-1.26154e-07
-1.26858e-07
0.0493034
1.02869e-07
0.0493034
1.01773e-07
0.0493034
-1.02873e-07
-1.01768e-07
0.0500703
7.3614e-08
0.0500703
7.16947e-08
0.0500703
-7.36168e-08
-7.16918e-08
0.0508257
3.90546e-08
0.0508258
3.72233e-08
0.0508257
-3.90558e-08
-3.72221e-08
0.0515681
0.0515681
0.0515681
)
;

boundaryField
{
    inlet
    {
        type            cyclic;
        value           nonuniform List<scalar> 
100
(
-0.051568
-0.0508257
-0.0500702
-0.0493034
-0.0485269
-0.0477423
-0.0469512
-0.0461548
-0.0453546
-0.0445517
-0.0437474
-0.0429426
-0.0421384
-0.0413356
-0.0405351
-0.0397377
-0.0389439
-0.0381545
-0.03737
-0.0365909
-0.0358177
-0.0350507
-0.0342902
-0.0335366
-0.0327901
-0.0320508
-0.031319
-0.030595
-0.0298789
-0.0291711
-0.0284717
-0.0277809
-0.0270989
-0.0264258
-0.0257616
-0.0251064
-0.0244604
-0.0238235
-0.0231958
-0.0225773
-0.0219681
-0.0213681
-0.0207774
-0.0201961
-0.019624
-0.0190613
-0.0185079
-0.0179639
-0.0174293
-0.016904
-0.016388
-0.0158812
-0.0153836
-0.0148951
-0.0144156
-0.0139448
-0.0134823
-0.0130272
-0.0125797
-0.0121397
-0.0117073
-0.0112822
-0.0108644
-0.0104537
-0.0100501
-0.00965341
-0.00926346
-0.00888016
-0.00850339
-0.00813305
-0.00776907
-0.00741137
-0.0070599
-0.00671463
-0.00637539
-0.00604179
-0.00571369
-0.00539122
-0.0050746
-0.00476409
-0.00445997
-0.00416255
-0.00387214
-0.00358899
-0.00331334
-0.00304536
-0.00278515
-0.00253277
-0.0022882
-0.0020514
-0.00182227
-0.00160071
-0.00138656
-0.00117967
-0.000979882
-0.000787023
-0.000600923
-0.000421413
-0.000248325
-8.14934e-05
)
;
    }
    outlet
    {
        type            cyclic;
        value           nonuniform List<scalar> 
100
(
0.051568
0.0508257
0.0500702
0.0493034
0.0485269
0.0477423
0.0469512
0.0461548
0.0453546
0.0445517
0.0437474
0.0429426
0.0421384
0.0413356
0.0405351
0.0397377
0.0389439
0.0381545
0.03737
0.0365909
0.0358177
0.0350507
0.0342902
0.0335366
0.0327901
0.0320508
0.031319
0.030595
0.0298789
0.0291711
0.0284717
0.0277809
0.0270989
0.0264258
0.0257616
0.0251064
0.0244604
0.0238235
0.0231958
0.0225773
0.0219681
0.0213681
0.0207774
0.0201961
0.019624
0.0190613
0.0185079
0.0179639
0.0174293
0.016904
0.016388
0.0158812
0.0153836
0.0148951
0.0144156
0.0139448
0.0134823
0.0130272
0.0125797
0.0121397
0.0117073
0.0112822
0.0108644
0.0104537
0.0100501
0.00965341
0.00926346
0.00888016
0.00850339
0.00813305
0.00776907
0.00741137
0.0070599
0.00671463
0.00637539
0.00604179
0.00571369
0.00539122
0.0050746
0.00476409
0.00445997
0.00416255
0.00387214
0.00358899
0.00331334
0.00304536
0.00278515
0.00253277
0.0022882
0.0020514
0.00182227
0.00160071
0.00138656
0.00117967
0.000979882
0.000787023
0.000600923
0.000421413
0.000248325
8.14934e-05
)
;
    }
    fixedWalls-bottom
    {
        type            calculated;
        value           uniform 0;
    }
    fixedWalls-top
    {
        type            symmetry;
        value           uniform 0;
    }
    frontAndBack
    {
        type            empty;
        value           nonuniform List<scalar> 0();
    }
}


// ************************************************************************* //
