/*--------------------------------*- C++ -*----------------------------------*\
  =========                 |
  \\      /  F ield         | OpenFOAM: The Open Source CFD Toolbox
   \\    /   O peration     | Website:  https://openfoam.org
    \\  /    A nd           | Version:  10
     \\/     M anipulation  |
\*---------------------------------------------------------------------------*/
FoamFile
{
    format      ascii;
    class       volVectorField;
    location    "3508";
    object      U;
}
// * * * * * * * * * * * * * * * * * * * * * * * * * * * * * * * * * * * * * //

dimensions      [0 1 -1 0 0 0 0];

internalField   nonuniform List<vector> 
400
(
(0.0088316 -3.77075e-11 0)
(0.00883162 2.50947e-13 0)
(0.0088316 3.65456e-11 0)
(0.00883159 -2.43948e-13 0)
(0.0265372 -3.83157e-10 0)
(0.0265373 1.93095e-11 0)
(0.0265372 3.80285e-10 0)
(0.0265372 -1.92853e-11 0)
(0.044408 -1.01562e-09 0)
(0.0444081 6.5525e-11 0)
(0.044408 1.01292e-09 0)
(0.044408 -6.54782e-11 0)
(0.0624441 -1.91057e-09 0)
(0.0624442 1.45932e-10 0)
(0.0624441 1.90798e-09 0)
(0.062444 -1.45862e-10 0)
(0.0806452 -3.01545e-09 0)
(0.0806453 2.67409e-10 0)
(0.0806452 3.01289e-09 0)
(0.0806451 -2.67316e-10 0)
(0.099011 -4.28036e-09 0)
(0.0990112 4.38473e-10 0)
(0.099011 4.2778e-09 0)
(0.0990109 -4.38356e-10 0)
(0.117541 -5.65468e-09 0)
(0.117541 6.69315e-10 0)
(0.117541 5.65211e-09 0)
(0.117541 -6.69174e-10 0)
(0.136234 -7.08381e-09 0)
(0.136234 9.71624e-10 0)
(0.136234 7.08124e-09 0)
(0.136234 -9.71459e-10 0)
(0.155088 -8.5087e-09 0)
(0.155088 1.35829e-09 0)
(0.155088 8.50612e-09 0)
(0.155088 -1.3581e-09 0)
(0.1741 -9.8661e-09 0)
(0.1741 1.84288e-09 0)
(0.174099 9.86352e-09 0)
(0.174099 -1.84266e-09 0)
(0.193265 -1.10891e-08 0)
(0.193265 2.43868e-09 0)
(0.193265 1.10865e-08 0)
(0.193265 -2.43844e-09 0)
(0.212576 -1.21078e-08 0)
(0.212576 3.15743e-09 0)
(0.212576 1.21052e-08 0)
(0.212576 -3.15716e-09 0)
(0.232025 -1.28508e-08 0)
(0.232025 4.00757e-09 0)
(0.232025 1.28482e-08 0)
(0.232025 -4.00727e-09 0)
(0.251598 -1.32475e-08 0)
(0.251598 4.99233e-09 0)
(0.251598 1.3245e-08 0)
(0.251598 -4.99201e-09 0)
(0.271279 -1.32322e-08 0)
(0.271279 6.10773e-09 0)
(0.271278 1.32297e-08 0)
(0.271279 -6.10738e-09 0)
(0.291046 -1.27495e-08 0)
(0.291046 7.34113e-09 0)
(0.291046 1.27469e-08 0)
(0.291046 -7.34074e-09 0)
(0.310875 -1.17631e-08 0)
(0.310875 8.67102e-09 0)
(0.310875 1.17605e-08 0)
(0.310876 -8.6706e-09 0)
(0.330737 -1.02668e-08 0)
(0.330737 1.0069e-08 0)
(0.330737 1.02643e-08 0)
(0.330737 -1.00686e-08 0)
(0.350599 -8.29917e-09 0)
(0.350599 1.15045e-08 0)
(0.350599 8.29661e-09 0)
(0.350599 -1.15041e-08 0)
(0.370426 -5.95899e-09 0)
(0.370426 1.29523e-08 0)
(0.370425 5.95644e-09 0)
(0.370426 -1.29518e-08 0)
(0.390182 -3.42116e-09 0)
(0.390182 1.44018e-08 0)
(0.390182 3.41861e-09 0)
(0.390183 -1.44012e-08 0)
(0.409835 -9.46847e-10 0)
(0.409835 1.58656e-08 0)
(0.409834 9.4429e-10 0)
(0.409835 -1.58651e-08 0)
(0.429351 1.10684e-09 0)
(0.429351 1.73913e-08 0)
(0.429351 -1.1094e-09 0)
(0.429351 -1.73907e-08 0)
(0.448705 2.24534e-09 0)
(0.448705 1.90909e-08 0)
(0.448704 -2.2479e-09 0)
(0.448705 -1.90903e-08 0)
(0.467873 1.75634e-09 0)
(0.467873 2.11889e-08 0)
(0.467873 -1.7589e-09 0)
(0.467873 -2.11882e-08 0)
(0.486842 -1.14632e-09 0)
(0.486842 2.39467e-08 0)
(0.486842 1.14375e-09 0)
(0.486841 -2.3946e-08 0)
(0.505618 -5.32403e-09 0)
(0.505618 2.66102e-08 0)
(0.505617 5.32145e-09 0)
(0.505617 -2.66094e-08 0)
(0.524224 -1.07995e-08 0)
(0.524225 2.9211e-08 0)
(0.524224 1.07969e-08 0)
(0.524224 -2.92103e-08 0)
(0.542669 -1.59567e-08 0)
(0.54267 3.09143e-08 0)
(0.542669 1.59541e-08 0)
(0.542669 -3.09135e-08 0)
(0.56095 -2.07702e-08 0)
(0.560951 3.18523e-08 0)
(0.56095 2.07676e-08 0)
(0.56095 -3.18514e-08 0)
(0.579065 -2.53414e-08 0)
(0.579066 3.22206e-08 0)
(0.579065 2.53388e-08 0)
(0.579065 -3.22198e-08 0)
(0.597014 -2.96973e-08 0)
(0.597015 3.21658e-08 0)
(0.597014 2.96947e-08 0)
(0.597014 -3.21649e-08 0)
(0.614798 -3.38319e-08 0)
(0.614798 3.18168e-08 0)
(0.614798 3.38293e-08 0)
(0.614797 -3.18158e-08 0)
(0.632417 -3.77344e-08 0)
(0.632417 3.13078e-08 0)
(0.632417 3.77318e-08 0)
(0.632416 -3.13068e-08 0)
(0.649874 -4.13836e-08 0)
(0.649875 3.07814e-08 0)
(0.649874 4.1381e-08 0)
(0.649874 -3.07804e-08 0)
(0.667173 -4.4736e-08 0)
(0.667173 3.03873e-08 0)
(0.667173 4.47334e-08 0)
(0.667173 -3.03862e-08 0)
(0.684316 -4.77117e-08 0)
(0.684317 3.02814e-08 0)
(0.684316 4.7709e-08 0)
(0.684316 -3.02803e-08 0)
(0.701308 -5.01775e-08 0)
(0.701308 3.06225e-08 0)
(0.701308 5.01748e-08 0)
(0.701308 -3.06213e-08 0)
(0.71815 -5.19261e-08 0)
(0.71815 3.15638e-08 0)
(0.71815 5.19234e-08 0)
(0.71815 -3.15626e-08 0)
(0.734846 -5.26433e-08 0)
(0.734846 3.3234e-08 0)
(0.734846 5.26406e-08 0)
(0.734846 -3.32327e-08 0)
(0.751397 -5.1849e-08 0)
(0.751397 3.56992e-08 0)
(0.751397 5.18463e-08 0)
(0.751397 -3.56979e-08 0)
(0.767803 -4.86811e-08 0)
(0.767803 3.88643e-08 0)
(0.767802 4.86784e-08 0)
(0.767803 -3.88629e-08 0)
(0.78406 -4.16578e-08 0)
(0.784059 4.23309e-08 0)
(0.784059 4.16551e-08 0)
(0.78406 -4.23295e-08 0)
(0.800163 -2.96487e-08 0)
(0.800162 4.54874e-08 0)
(0.800162 2.96458e-08 0)
(0.800164 -4.5486e-08 0)
(0.816107 -1.7578e-08 0)
(0.816107 4.87717e-08 0)
(0.816107 1.75752e-08 0)
(0.816109 -4.87702e-08 0)
(0.831925 -5.5964e-09 0)
(0.831925 5.13105e-08 0)
(0.831925 5.59361e-09 0)
(0.831926 -5.1309e-08 0)
(0.847647 1.16335e-09 0)
(0.847647 5.35836e-08 0)
(0.847647 -1.16619e-09 0)
(0.847647 -5.3582e-08 0)
(0.863273 4.09641e-09 0)
(0.863273 5.49247e-08 0)
(0.863273 -4.09929e-09 0)
(0.863274 -5.4923e-08 0)
(0.878804 4.56817e-09 0)
(0.878804 5.49236e-08 0)
(0.878804 -4.57108e-09 0)
(0.878804 -5.49219e-08 0)
(0.894236 3.33102e-09 0)
(0.894236 5.34836e-08 0)
(0.894236 -3.33396e-09 0)
(0.894236 -5.34818e-08 0)
(0.909567 7.91291e-10 0)
(0.909567 5.07238e-08 0)
(0.909567 -7.94269e-10 0)
(0.909567 -5.0722e-08 0)
(0.924792 -2.68549e-09 0)
(0.924792 4.68622e-08 0)
(0.924792 2.68247e-09 0)
(0.924792 -4.68603e-08 0)
(0.939906 -6.85818e-09 0)
(0.939907 4.22115e-08 0)
(0.939907 6.85512e-09 0)
(0.939906 -4.22095e-08 0)
(0.954904 -1.14143e-08 0)
(0.954904 3.70403e-08 0)
(0.954904 1.14112e-08 0)
(0.954904 -3.70383e-08 0)
(0.969779 -1.61204e-08 0)
(0.969779 3.16085e-08 0)
(0.969779 1.61173e-08 0)
(0.969779 -3.16064e-08 0)
(0.984525 -2.07825e-08 0)
(0.984525 2.60729e-08 0)
(0.984525 2.07793e-08 0)
(0.984525 -2.60707e-08 0)
(0.999135 -2.51135e-08 0)
(0.999136 2.04972e-08 0)
(0.999136 2.51103e-08 0)
(0.999135 -2.04949e-08 0)
(1.0136 -2.89992e-08 0)
(1.0136 1.50955e-08 0)
(1.0136 2.89959e-08 0)
(1.0136 -1.50931e-08 0)
(1.02792 -3.22857e-08 0)
(1.02792 9.95054e-09 0)
(1.02792 3.22823e-08 0)
(1.02792 -9.94815e-09 0)
(1.04209 -3.50326e-08 0)
(1.04209 5.3061e-09 0)
(1.04209 3.50292e-08 0)
(1.04209 -5.30363e-09 0)
(1.0561 -3.72914e-08 0)
(1.0561 1.24721e-09 0)
(1.0561 3.7288e-08 0)
(1.0561 -1.24465e-09 0)
(1.06994 -3.90957e-08 0)
(1.06994 -2.25513e-09 0)
(1.06994 3.90922e-08 0)
(1.06994 2.25777e-09 0)
(1.08361 -4.04703e-08 0)
(1.08361 -5.13506e-09 0)
(1.08361 4.04668e-08 0)
(1.08361 5.13779e-09 0)
(1.09711 -4.13689e-08 0)
(1.09711 -7.4708e-09 0)
(1.09711 4.13653e-08 0)
(1.09711 7.47362e-09 0)
(1.11043 -4.16769e-08 0)
(1.11043 -9.23814e-09 0)
(1.11043 4.16732e-08 0)
(1.11043 9.24107e-09 0)
(1.12356 -4.12402e-08 0)
(1.12356 -1.05856e-08 0)
(1.12356 4.12364e-08 0)
(1.12356 1.05887e-08 0)
(1.1365 -3.96506e-08 0)
(1.1365 -1.17542e-08 0)
(1.1365 3.96468e-08 0)
(1.1365 1.17574e-08 0)
(1.14925 -3.66805e-08 0)
(1.14925 -1.30885e-08 0)
(1.14925 3.66765e-08 0)
(1.14925 1.30917e-08 0)
(1.16179 -3.20543e-08 0)
(1.16179 -1.51524e-08 0)
(1.16179 3.20502e-08 0)
(1.16179 1.51558e-08 0)
(1.17412 -2.6011e-08 0)
(1.17412 -1.86191e-08 0)
(1.17412 2.60069e-08 0)
(1.17412 1.86225e-08 0)
(1.18623 -1.89938e-08 0)
(1.18623 -2.42175e-08 0)
(1.18623 1.89895e-08 0)
(1.18623 2.42211e-08 0)
(1.19812 -1.1966e-08 0)
(1.19812 -3.21449e-08 0)
(1.19812 1.19616e-08 0)
(1.19812 3.21486e-08 0)
(1.20978 -5.0717e-09 0)
(1.20978 -4.15206e-08 0)
(1.20978 5.06718e-09 0)
(1.20978 4.15244e-08 0)
(1.22119 3.98448e-09 0)
(1.22119 -4.94533e-08 0)
(1.22119 -3.98907e-09 0)
(1.22119 4.94574e-08 0)
(1.23234 1.23634e-08 0)
(1.23234 -5.03407e-08 0)
(1.23234 -1.23681e-08 0)
(1.23234 5.03449e-08 0)
(1.24323 1.88601e-08 0)
(1.24323 -4.1291e-08 0)
(1.24323 -1.88649e-08 0)
(1.24323 4.12954e-08 0)
(1.25386 2.15072e-08 0)
(1.25386 -2.35603e-08 0)
(1.25386 -2.15123e-08 0)
(1.25386 2.35649e-08 0)
(1.26421 1.91694e-08 0)
(1.26421 -1.88415e-09 0)
(1.2642 -1.91748e-08 0)
(1.26421 1.88882e-09 0)
(1.27427 1.58619e-08 0)
(1.27427 1.8302e-08 0)
(1.27427 -1.58674e-08 0)
(1.27427 -1.8297e-08 0)
(1.28405 1.36177e-08 0)
(1.28405 3.4003e-08 0)
(1.28405 -1.36233e-08 0)
(1.28405 -3.39979e-08 0)
(1.29353 1.37075e-08 0)
(1.29353 4.69725e-08 0)
(1.29353 -1.37132e-08 0)
(1.29353 -4.69672e-08 0)
(1.3027 1.6386e-08 0)
(1.3027 6.07536e-08 0)
(1.3027 -1.63919e-08 0)
(1.3027 -6.07479e-08 0)
(1.31156 2.09703e-08 0)
(1.31156 7.20236e-08 0)
(1.31155 -2.09763e-08 0)
(1.31156 -7.20181e-08 0)
(1.32008 2.996e-08 0)
(1.32008 8.51321e-08 0)
(1.32007 -2.99665e-08 0)
(1.32008 -8.5126e-08 0)
(1.32825 4.02442e-08 0)
(1.32825 9.98164e-08 0)
(1.32825 -4.02505e-08 0)
(1.32825 -9.98102e-08 0)
(1.33607 4.53925e-08 0)
(1.33606 1.15093e-07 0)
(1.33606 -4.53994e-08 0)
(1.33607 -1.15087e-07 0)
(1.34351 5.70152e-08 0)
(1.3435 1.36117e-07 0)
(1.3435 -5.70222e-08 0)
(1.3435 -1.36109e-07 0)
(1.35055 7.03294e-08 0)
(1.35055 1.62594e-07 0)
(1.35055 -7.03365e-08 0)
(1.35055 -1.62588e-07 0)
(1.35719 8.79903e-08 0)
(1.35719 1.86648e-07 0)
(1.35719 -8.79971e-08 0)
(1.35719 -1.86642e-07 0)
(1.3634 1.12076e-07 0)
(1.3634 1.98376e-07 0)
(1.3634 -1.12084e-07 0)
(1.3634 -1.9837e-07 0)
(1.36916 1.30671e-07 0)
(1.36916 1.99777e-07 0)
(1.36916 -1.30679e-07 0)
(1.36916 -1.99767e-07 0)
(1.37445 1.45016e-07 0)
(1.37445 1.88333e-07 0)
(1.37445 -1.45023e-07 0)
(1.37445 -1.88325e-07 0)
(1.37925 1.5313e-07 0)
(1.37925 1.77645e-07 0)
(1.37925 -1.53137e-07 0)
(1.37925 -1.77637e-07 0)
(1.38354 1.5454e-07 0)
(1.38354 1.67802e-07 0)
(1.38354 -1.54548e-07 0)
(1.38354 -1.67795e-07 0)
(1.38729 1.48632e-07 0)
(1.38729 1.55463e-07 0)
(1.38729 -1.48639e-07 0)
(1.38729 -1.55456e-07 0)
(1.39048 1.35369e-07 0)
(1.39048 1.38417e-07 0)
(1.39048 -1.35376e-07 0)
(1.39048 -1.3841e-07 0)
(1.39308 1.15165e-07 0)
(1.39309 1.15973e-07 0)
(1.39309 -1.15171e-07 0)
(1.39308 -1.15967e-07 0)
(1.39508 8.8945e-08 0)
(1.39508 8.80749e-08 0)
(1.39508 -8.89492e-08 0)
(1.39508 -8.80702e-08 0)
(1.39644 5.80826e-08 0)
(1.39644 5.50168e-08 0)
(1.39644 -5.80842e-08 0)
(1.39644 -5.50142e-08 0)
(1.39713 2.06884e-08 0)
(1.39713 1.8586e-08 0)
(1.39713 -2.06884e-08 0)
(1.39713 -1.85854e-08 0)
)
;

boundaryField
{
    inlet
    {
        type            cyclic;
    }
    outlet
    {
        type            cyclic;
    }
    fixedWalls-bottom
    {
        type            noSlip;
    }
    fixedWalls-top
    {
        type            symmetry;
    }
    frontAndBack
    {
        type            empty;
    }
}


// ************************************************************************* //
