/*--------------------------------*- C++ -*----------------------------------*\
  =========                 |
  \\      /  F ield         | OpenFOAM: The Open Source CFD Toolbox
   \\    /   O peration     | Website:  https://openfoam.org
    \\  /    A nd           | Version:  10
     \\/     M anipulation  |
\*---------------------------------------------------------------------------*/
FoamFile
{
    format      ascii;
    class       volScalarField;
    location    "3244";
    object      k;
}
// * * * * * * * * * * * * * * * * * * * * * * * * * * * * * * * * * * * * * //

dimensions      [0 2 -2 0 0 0 0];

internalField   nonuniform List<scalar> 
400
(
6.13957e-08
6.14931e-08
6.15439e-08
6.15322e-08
1.84204e-06
1.84496e-06
1.84649e-06
1.84614e-06
1.30424e-05
1.30632e-05
1.30739e-05
1.30714e-05
4.73599e-05
4.74356e-05
4.74745e-05
4.74654e-05
0.000122081
0.000122278
0.000122377
0.000122354
0.000256249
0.000256667
0.000256871
0.000256821
0.000467946
0.000468718
0.000469079
0.000468985
0.000770052
0.000771328
0.000771888
0.000771733
0.00116545
0.00116736
0.00116814
0.0011679
0.00164432
0.00164692
0.00164789
0.00164757
0.00218586
0.00218908
0.00219019
0.00218978
0.00276371
0.00276737
0.00276851
0.00276803
0.00335202
0.00335586
0.00335693
0.0033564
0.00392948
0.00393324
0.00393417
0.00393359
0.00448073
0.00448421
0.00448493
0.0044843
0.00499599
0.00499908
0.00499956
0.00499886
0.00547036
0.00547304
0.00547324
0.00547244
0.00590328
0.00590568
0.00590557
0.00590461
0.00629531
0.00629745
0.00629703
0.00629591
0.0066472
0.00664914
0.00664841
0.00664716
0.00696038
0.00696219
0.00696117
0.00695984
0.00723679
0.00723848
0.00723722
0.00723586
0.00747866
0.00748024
0.00747881
0.00747744
0.00768837
0.00768985
0.00768832
0.00768699
0.00786839
0.00786978
0.0078682
0.00786695
0.00802118
0.00802247
0.0080209
0.00801975
0.00814911
0.00815031
0.00814878
0.00814777
0.00825447
0.00825557
0.0082541
0.00825326
0.00833937
0.00834036
0.00833896
0.00833831
0.0084058
0.00840666
0.00840534
0.00840488
0.00845557
0.00845628
0.00845503
0.00845477
0.00849034
0.00849089
0.0084897
0.00848964
0.0085116
0.00851197
0.00851085
0.00851097
0.00852069
0.00852088
0.00851981
0.00852014
0.00851881
0.00851885
0.0085178
0.00851835
0.00850706
0.00850696
0.0085059
0.0085067
0.00848639
0.00848617
0.00848508
0.00848615
0.00845768
0.00845734
0.0084562
0.00845756
0.00842171
0.00842124
0.00842006
0.00842171
0.00837919
0.00837857
0.00837736
0.0083793
0.00833074
0.00832996
0.00832876
0.00833097
0.00827697
0.00827605
0.00827487
0.00827731
0.00821846
0.00821742
0.00821627
0.00821888
0.00815564
0.00815449
0.00815338
0.00815609
0.00808874
0.00808748
0.00808643
0.00808924
0.00801792
0.00801654
0.00801555
0.00801852
0.00794332
0.00794181
0.00794087
0.00794405
0.00786508
0.00786343
0.00786254
0.00786593
0.00778333
0.00778154
0.00778067
0.00778428
0.00769818
0.00769626
0.0076954
0.00769922
0.00760976
0.00760771
0.00760685
0.00761086
0.00751818
0.00751601
0.00751511
0.0075193
0.00742352
0.00742126
0.00742032
0.00742465
0.0073259
0.00732355
0.00732256
0.00732702
0.00722539
0.00722298
0.00722194
0.00722648
0.00712206
0.00711962
0.00711852
0.00712313
0.00701601
0.00701355
0.00701238
0.00701705
0.00690728
0.00690482
0.00690359
0.0069083
0.00679594
0.0067935
0.00679222
0.00679693
0.00668203
0.00667961
0.00667831
0.00668302
0.00656561
0.00656323
0.00656191
0.0065666
0.00644672
0.00644436
0.00644307
0.00644771
0.00632541
0.00632306
0.0063218
0.0063264
0.0062017
0.00619938
0.00619816
0.0062027
0.00607563
0.00607335
0.00607215
0.00607663
0.00594722
0.00594499
0.00594383
0.00594822
0.00581651
0.00581433
0.0058132
0.00581748
0.0056835
0.00568138
0.00568027
0.00568445
0.00554821
0.00554617
0.00554506
0.00554914
0.00541068
0.00540872
0.00540757
0.00541157
0.00527093
0.00526905
0.00526783
0.00527176
0.00512896
0.0051272
0.00512586
0.00512974
0.00498482
0.0049832
0.00498171
0.00498551
0.00483854
0.00483709
0.00483545
0.00483912
0.00469013
0.00468887
0.00468708
0.00469065
0.00453966
0.00453859
0.00453669
0.00454017
0.00438721
0.00438629
0.00438437
0.00438772
0.00423288
0.00423201
0.00423021
0.00423338
0.00407673
0.00407592
0.00407425
0.00407723
0.0039189
0.00391808
0.00391662
0.00391932
0.00375943
0.00375864
0.0037574
0.00375975
0.00359846
0.0035978
0.00359666
0.00359869
0.00343617
0.00343567
0.00343458
0.00343635
0.00327281
0.00327241
0.00327141
0.00327297
0.00310866
0.00310829
0.0031074
0.00310881
0.00294403
0.00294355
0.00294287
0.00294422
0.0027793
0.00277865
0.00277814
0.00277956
0.00261496
0.00261415
0.00261371
0.00261525
0.00245158
0.00245065
0.00245023
0.00245177
0.00228993
0.00228899
0.0022884
0.00228989
0.00213091
0.00213014
0.00212928
0.00213071
0.00197582
0.00197531
0.00197429
0.00197562
0.00182642
0.00182609
0.00182511
0.00182628
0.0016848
0.00168456
0.00168371
0.00168476
0.00155344
0.00155325
0.00155256
0.00155352
0.00143535
0.00143518
0.00143464
0.00143554
0.00133399
0.00133383
0.00133341
0.00133429
0.00125316
0.00125299
0.00125265
0.00125353
0.00119661
0.00119633
0.00119615
0.00119706
0.00116736
0.00116712
0.00116708
0.00116802
)
;

boundaryField
{
    inlet
    {
        type            cyclic;
    }
    outlet
    {
        type            cyclic;
    }
    fixedWalls-bottom
    {
        type            kqRWallFunction;
        value           nonuniform List<scalar> 4(6.13957e-08 6.14931e-08 6.15439e-08 6.15322e-08);
    }
    fixedWalls-top
    {
        type            symmetry;
    }
    frontAndBack
    {
        type            empty;
    }
}


// ************************************************************************* //
