/*--------------------------------*- C++ -*----------------------------------*\
  =========                 |
  \\      /  F ield         | OpenFOAM: The Open Source CFD Toolbox
   \\    /   O peration     | Website:  https://openfoam.org
    \\  /    A nd           | Version:  10
     \\/     M anipulation  |
\*---------------------------------------------------------------------------*/
FoamFile
{
    format      ascii;
    class       volScalarField;
    location    "3244";
    object      omega;
}
// * * * * * * * * * * * * * * * * * * * * * * * * * * * * * * * * * * * * * //

dimensions      [0 0 -1 0 0 0 0];

internalField   nonuniform List<scalar> 
400
(
8041.1
8041.1
8041.1
8041.1
1375.49
1375.49
1375.49
1375.49
463.053
463.053
463.053
463.053
218.26
218.259
218.259
218.259
124.585
124.582
124.582
124.582
80.5233
80.5165
80.5154
80.5165
56.9229
56.9114
56.9097
56.9113
43.1065
43.0896
43.0876
43.0897
34.4461
34.4242
34.4222
34.4245
28.6817
28.6561
28.6542
28.6566
24.616
24.5886
24.587
24.5894
21.5826
21.5555
21.5544
21.5566
19.2006
19.1758
19.1753
19.177
17.2498
17.2288
17.229
17.2301
15.6015
15.5853
15.5864
15.5864
14.1786
14.1676
14.1686
14.1683
12.9318
12.925
12.9268
12.9268
11.828
11.8237
11.827
11.8278
10.8431
10.8414
10.8462
10.8471
9.96267
9.96276
9.96906
9.96981
9.17536
9.1767
9.18433
9.18457
8.47225
8.47434
8.48277
8.48286
7.8456
7.84808
7.85685
7.85684
7.28836
7.29095
7.29962
7.29954
6.79389
6.79641
6.80458
6.80441
6.3559
6.35818
6.36554
6.36526
5.96841
5.97033
5.97667
5.97619
5.62576
5.62722
5.63246
5.63154
5.32249
5.32346
5.32776
5.32619
5.05337
5.05413
5.05775
5.05584
4.81422
4.81487
4.81803
4.81589
4.60109
4.60189
4.60459
4.60232
4.41049
4.41197
4.41381
4.41155
4.23974
4.24165
4.24265
4.24019
4.08622
4.08821
4.0884
4.08566
3.94729
3.94892
3.9489
3.9457
3.82091
3.8221
3.82201
3.81833
3.70532
3.70596
3.70593
3.7018
3.59883
3.59932
3.59913
3.59461
3.50037
3.50079
3.50044
3.49555
3.40899
3.40938
3.40888
3.40363
3.32391
3.32431
3.32365
3.31806
3.24449
3.24492
3.2441
3.23819
3.17021
3.17066
3.1697
3.16352
3.10062
3.10108
3.10001
3.09358
3.03532
3.03582
3.03464
3.02792
2.9741
2.97438
2.97316
2.96609
2.91622
2.9164
2.9151
2.90767
2.86124
2.86138
2.85999
2.85226
2.80878
2.8089
2.80744
2.79946
2.75847
2.75852
2.75716
2.74888
2.71019
2.70975
2.70887
2.70021
2.66327
2.66322
2.66201
2.65326
2.6176
2.61821
2.6165
2.60787
2.5738
2.5743
2.57244
2.56379
2.53099
2.53143
2.52985
2.52085
2.48919
2.48954
2.4885
2.47905
2.44881
2.44918
2.448
2.43836
2.40944
2.40939
2.40841
2.3987
2.3707
2.37116
2.36966
2.35976
2.33322
2.33301
2.33195
2.32151
2.29628
2.29664
2.29454
2.28402
2.25986
2.2604
2.25803
2.24721
2.22401
2.22463
2.22219
2.21102
2.18903
2.18898
2.18676
2.17552
2.15432
2.15445
2.15152
2.14081
2.12029
2.12049
2.11714
2.10666
2.0868
2.0871
2.08358
2.07306
2.05376
2.05425
2.05079
2.04002
2.02111
2.0219
2.01879
2.00754
1.98888
1.98994
1.98763
1.97562
1.95703
1.95824
1.9571
1.94432
1.92559
1.9266
1.92616
1.91383
1.89425
1.89537
1.89593
1.88322
1.86447
1.86464
1.86641
1.85222
1.83433
1.8345
1.83623
1.82159
1.80413
1.80482
1.80557
1.7913
1.77407
1.77597
1.77454
1.76143
1.74442
1.74575
1.7447
1.73216
1.71387
1.71693
1.71389
1.70456
1.68555
1.68734
1.68435
1.67729
1.65724
1.65708
1.65673
1.64946
1.62896
1.62868
1.62861
1.62133
1.60087
1.60094
1.60036
1.59293
1.57309
1.57416
1.5723
1.56429
1.5458
1.54948
1.54502
1.53547
1.51893
1.52369
1.51982
1.50708
1.49225
1.49872
1.49447
1.48077
1.46601
1.47464
1.46995
1.45727
1.44085
1.44927
1.44884
1.4338
1.41975
1.42403
1.42591
1.41033
1.39734
1.39997
1.40227
1.38696
1.37468
1.37649
1.3785
1.36371
1.35263
1.35353
1.35505
1.34075
1.33169
1.33139
1.33231
1.31833
1.31194
1.3103
1.31062
1.29668
1.29306
1.29001
1.29014
1.27593
1.27424
1.27007
1.27057
1.25601
1.25455
1.25308
1.24968
1.23451
1.24048
1.22848
1.22403
1.20876
)
;

boundaryField
{
    inlet
    {
        type            cyclic;
    }
    outlet
    {
        type            cyclic;
    }
    fixedWalls-bottom
    {
        beta1           0.075;
        blended         0;
        type            omegaWallFunction;
        value           uniform 8041.1;
    }
    fixedWalls-top
    {
        type            symmetry;
    }
    frontAndBack
    {
        type            empty;
    }
}


// ************************************************************************* //
