/*--------------------------------*- C++ -*----------------------------------*\
  =========                 |
  \\      /  F ield         | OpenFOAM: The Open Source CFD Toolbox
   \\    /   O peration     | Website:  https://openfoam.org
    \\  /    A nd           | Version:  10
     \\/     M anipulation  |
\*---------------------------------------------------------------------------*/
FoamFile
{
    format      ascii;
    class       volScalarField;
    location    "3244";
    object      p;
}
// * * * * * * * * * * * * * * * * * * * * * * * * * * * * * * * * * * * * * //

dimensions      [0 2 -2 0 0 0 0];

internalField   nonuniform List<scalar> 
400
(
-6.48127e-12
-1.04125e-06
-9.64728e-07
7.74693e-08
9.80107e-10
-1.0437e-06
-9.65733e-07
7.99126e-08
2.20639e-09
-1.04658e-06
-9.66964e-07
8.27957e-08
3.52573e-09
-1.04943e-06
-9.68283e-07
8.56523e-08
5.00278e-09
-1.05223e-06
-9.69759e-07
8.84435e-08
6.73144e-09
-1.05484e-06
-9.71489e-07
9.10614e-08
8.79141e-09
-1.05693e-06
-9.7355e-07
9.3149e-08
1.12538e-08
-1.05773e-06
-9.76014e-07
9.39498e-08
1.41992e-08
-1.05596e-06
-9.78961e-07
9.21813e-08
1.776e-08
-1.04993e-06
-9.82524e-07
8.61464e-08
2.21563e-08
-1.038e-06
-9.86922e-07
7.42239e-08
2.76965e-08
-1.01935e-06
-9.92461e-07
5.55697e-08
3.47296e-08
-9.94417e-07
-9.99491e-07
3.06351e-08
4.35909e-08
-9.65025e-07
-1.00835e-06
1.24281e-09
5.45042e-08
-9.34074e-07
-1.01926e-06
-2.97083e-08
6.72668e-08
-9.05434e-07
-1.03202e-06
-5.8347e-08
8.07491e-08
-8.85469e-07
-1.04551e-06
-7.83111e-08
9.58029e-08
-8.74532e-07
-1.06057e-06
-8.92474e-08
1.14954e-07
-8.67071e-07
-1.07972e-06
-9.67073e-08
1.391e-07
-8.61155e-07
-1.10387e-06
-1.02623e-07
1.68181e-07
-8.56424e-07
-1.13295e-06
-1.07355e-07
2.01761e-07
-8.5257e-07
-1.16654e-06
-1.1121e-07
2.39173e-07
-8.49197e-07
-1.20395e-06
-1.14582e-07
2.79592e-07
-8.45946e-07
-1.24437e-06
-1.17832e-07
3.22157e-07
-8.42554e-07
-1.28694e-06
-1.21222e-07
3.66093e-07
-8.38939e-07
-1.33088e-06
-1.24835e-07
4.10752e-07
-8.35162e-07
-1.37554e-06
-1.28609e-07
4.55605e-07
-8.31342e-07
-1.42039e-06
-1.32427e-07
5.00305e-07
-8.27681e-07
-1.4651e-06
-1.36085e-07
5.44741e-07
-8.2448e-07
-1.50953e-06
-1.39284e-07
5.88981e-07
-8.2207e-07
-1.55378e-06
-1.41691e-07
6.33162e-07
-8.20726e-07
-1.59796e-06
-1.43033e-07
6.77386e-07
-8.20577e-07
-1.64219e-06
-1.4318e-07
7.21666e-07
-8.21539e-07
-1.68647e-06
-1.42216e-07
7.65939e-07
-8.23271e-07
-1.73074e-06
-1.40482e-07
8.102e-07
-8.25166e-07
-1.77501e-06
-1.38585e-07
8.54668e-07
-8.26318e-07
-1.81948e-06
-1.37431e-07
9.00032e-07
-8.25494e-07
-1.86484e-06
-1.38254e-07
9.47853e-07
-8.21224e-07
-1.91266e-06
-1.42522e-07
1.00123e-06
-8.12151e-07
-1.96604e-06
-1.51588e-07
1.06566e-06
-7.97808e-07
-2.03047e-06
-1.65905e-07
1.14904e-06
-7.79896e-07
-2.11387e-06
-1.8376e-07
1.25635e-06
-7.63177e-07
-2.22119e-06
-2.0042e-07
1.37166e-06
-7.53669e-07
-2.33649e-06
-2.09982e-07
1.43995e-06
-7.52637e-07
-2.40477e-06
-2.11229e-07
1.42528e-06
-7.55066e-07
-2.3901e-06
-2.09018e-07
1.36342e-06
-7.55591e-07
-2.32826e-06
-2.08574e-07
1.29258e-06
-7.52903e-07
-2.25743e-06
-2.11259e-07
1.2161e-06
-7.48172e-07
-2.18095e-06
-2.15975e-07
1.13199e-06
-7.42568e-07
-2.09683e-06
-2.2156e-07
1.04136e-06
-7.37312e-07
-2.00621e-06
-2.26787e-07
9.47507e-07
-7.32992e-07
-1.91236e-06
-2.31073e-07
8.48787e-07
-7.30191e-07
-1.81364e-06
-2.33844e-07
7.4148e-07
-7.296e-07
-1.70634e-06
-2.34405e-07
6.27182e-07
-7.28817e-07
-1.59205e-06
-2.3516e-07
5.09186e-07
-7.28913e-07
-1.47405e-06
-2.35036e-07
3.89867e-07
-7.35239e-07
-1.35474e-06
-2.2867e-07
2.67708e-07
-7.45283e-07
-1.23258e-06
-2.18581e-07
1.42313e-07
-7.53311e-07
-1.10719e-06
-2.10516e-07
1.08411e-08
-7.59235e-07
-9.75725e-07
-2.0456e-07
-1.29451e-07
-7.62429e-07
-8.35442e-07
-2.01335e-07
-2.83312e-07
-7.59254e-07
-6.81592e-07
-2.04484e-07
-4.54552e-07
-7.51098e-07
-5.1036e-07
-2.12609e-07
-6.37014e-07
-7.41741e-07
-3.27903e-07
-2.21914e-07
-8.2318e-07
-7.27783e-07
-1.41742e-07
-2.35821e-07
-1.0105e-06
-7.03601e-07
4.55725e-08
-2.59985e-07
-1.20167e-06
-6.69437e-07
2.3675e-07
-2.94174e-07
-1.39752e-06
-6.29886e-07
4.32601e-07
-3.33783e-07
-1.59795e-06
-5.91186e-07
6.33036e-07
-3.72553e-07
-1.80216e-06
-5.61039e-07
8.37237e-07
-4.02757e-07
-2.00753e-06
-5.48503e-07
1.04258e-06
-4.15303e-07
-2.20708e-06
-5.59613e-07
1.24208e-06
-4.0414e-07
-2.38908e-06
-5.89647e-07
1.42406e-06
-3.74026e-07
-2.55132e-06
-6.35811e-07
1.58629e-06
-3.27769e-07
-2.70724e-06
-6.94975e-07
1.74224e-06
-2.6849e-07
-2.86922e-06
-7.56329e-07
1.90424e-06
-2.07003e-07
-3.04285e-06
-8.10727e-07
2.07787e-06
-1.52464e-07
-3.23156e-06
-8.50278e-07
2.26656e-06
-1.12805e-07
-3.41989e-06
-8.77627e-07
2.45486e-06
-8.54148e-08
-3.58469e-06
-8.97546e-07
2.61965e-06
-6.55361e-08
-3.71041e-06
-9.03156e-07
2.74537e-06
-6.0067e-08
-3.78804e-06
-9.02487e-07
2.823e-06
-6.08958e-08
-3.83618e-06
-9.07917e-07
2.87113e-06
-5.55826e-08
-3.88413e-06
-9.13674e-07
2.91908e-06
-4.99352e-08
-3.95462e-06
-9.14074e-07
2.98956e-06
-4.96903e-08
-4.07449e-06
-9.12722e-07
3.10942e-06
-5.1218e-08
-4.24603e-06
-9.25119e-07
3.28095e-06
-3.88798e-08
-4.44242e-06
-9.60013e-07
3.47728e-06
-3.85247e-09
-4.63298e-06
-1.01917e-06
3.66775e-06
5.55556e-08
-4.79105e-06
-1.11277e-06
3.82578e-06
1.49471e-07
-4.91159e-06
-1.21442e-06
3.94639e-06
2.51296e-07
-5.00737e-06
-1.29122e-06
4.04227e-06
3.28088e-07
-5.08912e-06
-1.34618e-06
4.12406e-06
3.82963e-07
-5.16132e-06
-1.38298e-06
4.19626e-06
4.19675e-07
-5.22611e-06
-1.40197e-06
4.26105e-06
4.38598e-07
-5.28449e-06
-1.40503e-06
4.31942e-06
4.41595e-07
-5.33487e-06
-1.39749e-06
4.36981e-06
4.34001e-07
-5.37475e-06
-1.38626e-06
4.40972e-06
4.22753e-07
-5.40803e-06
-1.37517e-06
4.44305e-06
4.11663e-07
-5.4346e-06
-1.36195e-06
4.46973e-06
3.98406e-07
)
;

boundaryField
{
    inlet
    {
        type            cyclic;
    }
    outlet
    {
        type            cyclic;
    }
    fixedWalls-bottom
    {
        type            zeroGradient;
    }
    fixedWalls-top
    {
        type            symmetry;
    }
    frontAndBack
    {
        type            empty;
    }
}


// ************************************************************************* //
