/*--------------------------------*- C++ -*----------------------------------*\
  =========                 |
  \\      /  F ield         | OpenFOAM: The Open Source CFD Toolbox
   \\    /   O peration     | Website:  https://openfoam.org
    \\  /    A nd           | Version:  10
     \\/     M anipulation  |
\*---------------------------------------------------------------------------*/
FoamFile
{
    format      ascii;
    class       volSymmTensorField;
    location    "3244";
    object      R;
}
// * * * * * * * * * * * * * * * * * * * * * * * * * * * * * * * * * * * * * //

dimensions      [0 2 -2 0 0 0 0];

internalField   nonuniform List<symmTensor> 
400
(
(4.09305e-08 -5.99773e-11 -0 4.09305e-08 -0 4.09305e-08)
(4.09954e-08 -6.00767e-11 -0 4.09954e-08 -0 4.09954e-08)
(4.10293e-08 -6.01302e-11 -0 4.10293e-08 -0 4.10293e-08)
(4.10215e-08 -6.01182e-11 -0 4.10215e-08 -0 4.10215e-08)
(1.22803e-06 -1.04707e-08 -0 1.22803e-06 -0 1.22803e-06)
(1.22998e-06 -1.0488e-08 -0 1.22998e-06 -0 1.22998e-06)
(1.23099e-06 -1.04974e-08 -0 1.23099e-06 -0 1.23099e-06)
(1.23076e-06 -1.04953e-08 -0 1.23076e-06 -0 1.23076e-06)
(8.69496e-06 -2.19153e-07 -0 8.69496e-06 -0 8.69496e-06)
(8.70877e-06 -2.19518e-07 -0 8.70878e-06 -0 8.70878e-06)
(8.71596e-06 -2.19714e-07 -0 8.71596e-06 -0 8.71596e-06)
(8.7143e-06 -2.1967e-07 -0 8.7143e-06 -0 8.7143e-06)
(3.15733e-05 -1.67926e-06 -0 3.15733e-05 -0 3.15733e-05)
(3.16237e-05 -1.68208e-06 -0 3.16237e-05 -0 3.16237e-05)
(3.16497e-05 -1.68359e-06 -0 3.16497e-05 -0 3.16497e-05)
(3.16436e-05 -1.68324e-06 -0 3.16436e-05 -0 3.16436e-05)
(8.13875e-05 -7.53235e-06 -0 8.13874e-05 -0 8.13875e-05)
(8.15185e-05 -7.54533e-06 -0 8.15186e-05 -0 8.15186e-05)
(8.15849e-05 -7.55202e-06 -0 8.15849e-05 -0 8.15849e-05)
(8.15691e-05 -7.5504e-06 -0 8.1569e-05 -0 8.1569e-05)
(0.000170833 -2.42245e-05 -0 0.000170833 -0 0.000170833)
(0.000171111 -2.42683e-05 -0 0.000171111 -0 0.000171111)
(0.000171248 -2.42895e-05 -0 0.000171248 -0 0.000171248)
(0.000171214 -2.4284e-05 -0 0.000171214 -0 0.000171214)
(0.000311964 -6.16351e-05 -0 0.000311964 -0 0.000311964)
(0.000312478 -6.17554e-05 -0 0.000312479 -0 0.000312479)
(0.000312719 -6.18078e-05 -0 0.00031272 -0 0.000312719)
(0.000312657 -6.17922e-05 -0 0.000312656 -0 0.000312657)
(0.000513368 -0.000130833 -0 0.000513367 -0 0.000513368)
(0.000514217 -0.000131113 -0 0.00051422 -0 0.000514218)
(0.000514592 -0.000131218 -0 0.000514593 -0 0.000514592)
(0.00051449 -0.000131182 -0 0.000514487 -0 0.000514489)
(0.000776966 -0.000239502 -0 0.000776964 -0 0.000776965)
(0.000778235 -0.000240062 -0 0.000778241 -0 0.000778238)
(0.000778756 -0.000240236 -0 0.000778758 -0 0.000778757)
(0.000778605 -0.000240164 -0 0.000778599 -0 0.000778602)
(0.00109622 -0.000387701 -0 0.00109621 -0 0.00109622)
(0.00109794 -0.000388665 -0 0.00109795 -0 0.00109795)
(0.00109859 -0.000388906 -0 0.0010986 -0 0.0010986)
(0.00109839 -0.000388782 -0 0.00109838 -0 0.00109838)
(0.00145724 -0.000567374 -0 0.00145724 -0 0.00145724)
(0.00145938 -0.00056881 -0 0.0014594 -0 0.00145939)
(0.00146012 -0.00056909 -0 0.00146013 -0 0.00146013)
(0.00145986 -0.000568907 -0 0.00145985 -0 0.00145985)
(0.00184247 -0.000765907 -0 0.00184247 -0 0.00184247)
(0.0018449 -0.000767785 -0 0.00184492 -0 0.00184491)
(0.00184567 -0.000768057 -0 0.00184567 -0 0.00184567)
(0.00184536 -0.000767818 -0 0.00184534 -0 0.00184535)
(0.00223468 -0.000970691 -0 0.00223468 -0 0.00223468)
(0.00223723 -0.000972876 -0 0.00223725 -0 0.00223724)
(0.00223796 -0.000973094 -0 0.00223796 -0 0.00223796)
(0.00223761 -0.000972814 -0 0.00223759 -0 0.0022376)
(0.00261965 -0.00117189 -0 0.00261966 -0 0.00261965)
(0.00262215 -0.00117419 -0 0.00262217 -0 0.00262216)
(0.00262278 -0.00117431 -0 0.00262278 -0 0.00262278)
(0.0026224 -0.00117402 -0 0.00262239 -0 0.00262239)
(0.00298714 -0.00136305 -0 0.00298716 -0 0.00298715)
(0.00298947 -0.00136523 -0 0.00298948 -0 0.00298947)
(0.00298996 -0.00136524 -0 0.00298994 -0 0.00298995)
(0.00298954 -0.00136498 -0 0.00298953 -0 0.00298954)
(0.00333065 -0.00154185 -0 0.00333067 -0 0.00333066)
(0.00333272 -0.00154383 -0 0.00333272 -0 0.00333272)
(0.00333305 -0.00154376 -0 0.00333303 -0 0.00333304)
(0.00333257 -0.00154349 -0 0.00333257 -0 0.00333257)
(0.00364689 -0.00169581 -0 0.00364692 -0 0.0036469)
(0.00364869 -0.00169664 -0 0.00364869 -0 0.00364869)
(0.00364884 -0.00169671 -0 0.00364881 -0 0.00364883)
(0.00364829 -0.00169646 -0 0.00364829 -0 0.00364829)
(0.0039355 -0.00183002 -0 0.00393554 -0 0.00393552)
(0.00393712 -0.00183076 -0 0.00393712 -0 0.00393712)
(0.00393707 -0.00183073 -0 0.00393703 -0 0.00393705)
(0.00393641 -0.00183043 -0 0.00393641 -0 0.00393641)
(0.00419685 -0.00195155 -0 0.00419689 -0 0.00419687)
(0.0041983 -0.00195221 -0 0.00419831 -0 0.0041983)
(0.00419804 -0.00195208 -0 0.004198 -0 0.00419802)
(0.00419727 -0.00195174 -0 0.00419727 -0 0.00419727)
(0.00443144 -0.00206064 -0 0.00443149 -0 0.00443147)
(0.00443276 -0.00206124 -0 0.00443277 -0 0.00443276)
(0.0044323 -0.00206102 -0 0.00443225 -0 0.00443227)
(0.00443145 -0.00206063 -0 0.00443144 -0 0.00443144)
(0.00464023 -0.00215774 -0 0.00464028 -0 0.00464026)
(0.00464145 -0.0021583 -0 0.00464147 -0 0.00464146)
(0.0046408 -0.00215799 -0 0.00464075 -0 0.00464078)
(0.0046399 -0.00215757 -0 0.00463988 -0 0.00463989)
(0.0048245 -0.00224345 -0 0.00482455 -0 0.00482453)
(0.00482565 -0.00224398 -0 0.00482566 -0 0.00482566)
(0.00482484 -0.00224359 -0 0.00482479 -0 0.00482481)
(0.00482391 -0.00224317 -0 0.00482389 -0 0.0048239)
(0.00498575 -0.00231848 -0 0.00498579 -0 0.00498577)
(0.00498682 -0.00231897 -0 0.00498684 -0 0.00498683)
(0.00498589 -0.00231853 -0 0.00498585 -0 0.00498587)
(0.00498497 -0.00231811 -0 0.00498495 -0 0.00498496)
(0.00512556 -0.00238357 -0 0.0051256 -0 0.00512558)
(0.00512656 -0.00238403 -0 0.00512658 -0 0.00512657)
(0.00512556 -0.00238356 -0 0.00512552 -0 0.00512554)
(0.00512467 -0.00238315 -0 0.00512465 -0 0.00512466)
(0.00524558 -0.00243952 -0 0.00524561 -0 0.0052456)
(0.00524651 -0.00243995 -0 0.00524653 -0 0.00524652)
(0.00524548 -0.00243947 -0 0.00524545 -0 0.00524547)
(0.00524464 -0.00243908 -0 0.00524462 -0 0.00524463)
(0.00534744 -0.0024868 -0 0.00534747 -0 0.00534745)
(0.0053483 -0.00248721 -0 0.00534832 -0 0.00534831)
(0.00534728 -0.00248672 -0 0.00534725 -0 0.00534726)
(0.00534651 -0.00248637 -0 0.00534649 -0 0.0053465)
(0.00543273 -0.00252637 -0 0.00543275 -0 0.00543274)
(0.00543353 -0.00252674 -0 0.00543355 -0 0.00543354)
(0.00543253 -0.00252627 -0 0.00543251 -0 0.00543252)
(0.00543186 -0.00252596 -0 0.00543184 -0 0.00543185)
(0.00550297 -0.00255898 -0 0.00550298 -0 0.00550298)
(0.0055037 -0.00255932 -0 0.00550372 -0 0.00550371)
(0.00550274 -0.00255887 -0 0.00550272 -0 0.00550273)
(0.00550218 -0.00255861 -0 0.00550217 -0 0.00550217)
(0.00555957 -0.00258527 -0 0.00555958 -0 0.00555958)
(0.00556023 -0.00258558 -0 0.00556024 -0 0.00556024)
(0.00555931 -0.00258514 -0 0.0055593 -0 0.00555931)
(0.00555888 -0.00258494 -0 0.00555887 -0 0.00555887)
(0.00560386 -0.00260584 -0 0.00560387 -0 0.00560386)
(0.00560444 -0.00260611 -0 0.00560444 -0 0.00560444)
(0.00560356 -0.0026057 -0 0.00560355 -0 0.00560356)
(0.00560326 -0.00260556 -0 0.00560325 -0 0.00560325)
(0.00563704 -0.00262126 -0 0.00563705 -0 0.00563705)
(0.00563752 -0.00262149 -0 0.00563752 -0 0.00563752)
(0.00563669 -0.0026211 -0 0.00563668 -0 0.00563669)
(0.00563652 -0.00262102 -0 0.00563651 -0 0.00563652)
(0.00566022 -0.00263204 -0 0.00566023 -0 0.00566023)
(0.00566059 -0.00263221 -0 0.00566059 -0 0.00566059)
(0.00565981 -0.00263184 -0 0.00565979 -0 0.0056598)
(0.00565976 -0.00263182 -0 0.00565976 -0 0.00565976)
(0.00567439 -0.00263862 -0 0.00567441 -0 0.0056744)
(0.00567465 -0.00263874 -0 0.00567464 -0 0.00567465)
(0.00567391 -0.00263839 -0 0.00567389 -0 0.0056739)
(0.00567398 -0.00263843 -0 0.00567398 -0 0.00567398)
(0.00568045 -0.00264144 -0 0.00568047 -0 0.00568046)
(0.00568059 -0.0026415 -0 0.00568059 -0 0.00568059)
(0.00567989 -0.00264117 -0 0.00567986 -0 0.00567987)
(0.00568009 -0.00264127 -0 0.00568009 -0 0.00568009)
(0.00567919 -0.00264086 -0 0.00567923 -0 0.00567921)
(0.00567923 -0.00264087 -0 0.00567923 -0 0.00567923)
(0.00567855 -0.00264055 -0 0.00567852 -0 0.00567854)
(0.0056789 -0.00264072 -0 0.0056789 -0 0.0056789)
(0.00567135 -0.00263722 -0 0.00567139 -0 0.00567137)
(0.00567131 -0.00263719 -0 0.0056713 -0 0.0056713)
(0.00567062 -0.00263686 -0 0.00567058 -0 0.0056706)
(0.00567113 -0.0026371 -0 0.00567114 -0 0.00567113)
(0.00565757 -0.00263081 -0 0.00565762 -0 0.00565759)
(0.00565745 -0.00263074 -0 0.00565744 -0 0.00565745)
(0.00565674 -0.00263041 -0 0.00565669 -0 0.00565672)
(0.00565743 -0.00263074 -0 0.00565744 -0 0.00565743)
(0.00563843 -0.00262192 -0 0.00563848 -0 0.00563846)
(0.00563824 -0.00262181 -0 0.00563822 -0 0.00563823)
(0.0056375 -0.00262146 -0 0.00563744 -0 0.00563747)
(0.00563836 -0.00262188 -0 0.00563838 -0 0.00563837)
(0.00561444 -0.00261077 -0 0.00561451 -0 0.00561448)
(0.00561418 -0.00261063 -0 0.00561414 -0 0.00561416)
(0.00561341 -0.00261026 -0 0.00561334 -0 0.00561337)
(0.00561445 -0.00261077 -0 0.00561449 -0 0.00561447)
(0.00558609 -0.0025976 -0 0.00558615 -0 0.00558612)
(0.00558575 -0.00259741 -0 0.00558567 -0 0.00558571)
(0.00558494 -0.00259703 -0 0.00558488 -0 0.00558491)
(0.00558616 -0.00259763 -0 0.00558624 -0 0.0055862)
(0.00555381 -0.00258259 -0 0.00555384 -0 0.00555382)
(0.00555337 -0.00258235 -0 0.00555325 -0 0.00555331)
(0.00555252 -0.00258198 -0 0.00555249 -0 0.0055525)
(0.00555392 -0.00258266 -0 0.00555404 -0 0.00555398)
(0.00551799 -0.00256594 -0 0.00551797 -0 0.00551798)
(0.00551746 -0.00256565 -0 0.00551728 -0 0.00551737)
(0.00551657 -0.00256528 -0 0.00551659 -0 0.00551658)
(0.00551812 -0.00256604 -0 0.00551829 -0 0.00551821)
(0.00547904 -0.00254782 -0 0.00547891 -0 0.00547898)
(0.00547839 -0.0025475 -0 0.00547817 -0 0.00547828)
(0.00547745 -0.00254714 -0 0.00547758 -0 0.00547751)
(0.00547914 -0.00254794 -0 0.00547936 -0 0.00547925)
(0.00543722 -0.00252837 -0 0.00543697 -0 0.00543709)
(0.00543646 -0.00252801 -0 0.00543619 -0 0.00543633)
(0.00543546 -0.00252767 -0 0.00543571 -0 0.00543559)
(0.00543726 -0.0025285 -0 0.00543753 -0 0.00543739)
(0.00539266 -0.00250539 -0 0.00539234 -0 0.00539249)
(0.0053918 -0.00250462 -0 0.00539151 -0 0.00539166)
(0.00539079 -0.00250499 -0 0.00539111 -0 0.00539096)
(0.00539268 -0.00250781 -0 0.00539297 -0 0.00539283)
(0.00534543 -0.00247864 -0 0.00534513 -0 0.00534528)
(0.00534451 -0.00247824 -0 0.00534422 -0 0.00534436)
(0.00534354 -0.00247872 -0 0.00534385 -0 0.0053437)
(0.00534554 -0.00248379 -0 0.00534583 -0 0.00534568)
(0.00529566 -0.00245205 -0 0.00529543 -0 0.00529555)
(0.00529468 -0.00245188 -0 0.0052944 -0 0.00529454)
(0.0052938 -0.00245254 -0 0.00529403 -0 0.00529391)
(0.00529589 -0.00245743 -0 0.00529617 -0 0.00529603)
(0.00524347 -0.00242451 -0 0.0052433 -0 0.00524339)
(0.00524242 -0.00242439 -0 0.00524216 -0 0.00524229)
(0.00524161 -0.00242523 -0 0.00524178 -0 0.00524169)
(0.00524382 -0.00243077 -0 0.00524409 -0 0.00524395)
(0.00518894 -0.00239603 -0 0.00518883 -0 0.00518888)
(0.00518782 -0.0023959 -0 0.00518757 -0 0.00518769)
(0.00518706 -0.00239688 -0 0.00518717 -0 0.00518712)
(0.0051894 -0.00240301 -0 0.00518965 -0 0.00518952)
(0.00513216 -0.00236665 -0 0.00513209 -0 0.00513212)
(0.00513095 -0.00236644 -0 0.00513073 -0 0.00513084)
(0.00513023 -0.00236755 -0 0.0051303 -0 0.00513027)
(0.0051327 -0.00237422 -0 0.00513293 -0 0.00513281)
(0.00507319 -0.00233645 -0 0.00507316 -0 0.00507318)
(0.00507191 -0.00233609 -0 0.00507171 -0 0.00507181)
(0.00507121 -0.00233728 -0 0.00507125 -0 0.00507123)
(0.0050738 -0.00234447 -0 0.00507401 -0 0.0050739)
(0.00501212 -0.0023053 -0 0.00501211 -0 0.00501212)
(0.00501077 -0.00230512 -0 0.00501058 -0 0.00501068)
(0.00501007 -0.00230605 -0 0.00501008 -0 0.00501007)
(0.00501277 -0.0023138 -0 0.00501296 -0 0.00501287)
(0.00494901 -0.00227347 -0 0.00494902 -0 0.00494901)
(0.00494759 -0.00227299 -0 0.00494743 -0 0.00494751)
(0.00494688 -0.00227412 -0 0.00494688 -0 0.00494688)
(0.00494969 -0.00228225 -0 0.00494985 -0 0.00494977)
(0.00488393 -0.00224101 -0 0.00488394 -0 0.00488393)
(0.00488244 -0.0022401 -0 0.0048823 -0 0.00488237)
(0.00488171 -0.00224142 -0 0.0048817 -0 0.00488171)
(0.00488461 -0.00224981 -0 0.00488475 -0 0.00488468)
(0.00481692 -0.00220741 -0 0.00481693 -0 0.00481692)
(0.00481538 -0.00220653 -0 0.00481525 -0 0.00481532)
(0.00481463 -0.00220788 -0 0.00481462 -0 0.00481462)
(0.00481759 -0.00221655 -0 0.00481772 -0 0.00481765)
(0.00474803 -0.00217322 -0 0.00474805 -0 0.00474804)
(0.00474647 -0.00217222 -0 0.00474636 -0 0.00474641)
(0.00474569 -0.00217348 -0 0.00474567 -0 0.00474568)
(0.0047487 -0.00218255 -0 0.00474881 -0 0.00474876)
(0.00467734 -0.00213832 -0 0.00467734 -0 0.00467734)
(0.00467575 -0.00213729 -0 0.00467565 -0 0.0046757)
(0.00467492 -0.00213827 -0 0.00467491 -0 0.00467492)
(0.00467799 -0.00214774 -0 0.00467808 -0 0.00467803)
(0.00460486 -0.00210244 -0 0.00460485 -0 0.00460485)
(0.00460325 -0.00210126 -0 0.00460318 -0 0.00460322)
(0.00460239 -0.00210243 -0 0.0046024 -0 0.00460239)
(0.00460549 -0.00211214 -0 0.00460557 -0 0.00460553)
(0.00453064 -0.00206578 -0 0.00453061 -0 0.00453062)
(0.00452903 -0.00206489 -0 0.00452897 -0 0.004529)
(0.00452813 -0.00206584 -0 0.00452816 -0 0.00452815)
(0.00453126 -0.0020757 -0 0.00453132 -0 0.00453129)
(0.00445472 -0.00202855 -0 0.00445466 -0 0.00445469)
(0.0044531 -0.00202724 -0 0.00445305 -0 0.00445307)
(0.00445218 -0.0020286 -0 0.00445224 -0 0.00445221)
(0.00445532 -0.00203858 -0 0.00445537 -0 0.00445534)
(0.00437711 -0.00199024 -0 0.00437704 -0 0.00437708)
(0.0043755 -0.00198951 -0 0.00437547 -0 0.00437548)
(0.00437457 -0.00199045 -0 0.00437464 -0 0.00437461)
(0.00437771 -0.00200073 -0 0.00437775 -0 0.00437773)
(0.00429786 -0.00195133 -0 0.00429778 -0 0.00429781)
(0.00429625 -0.0019503 -0 0.00429623 -0 0.00429624)
(0.00429534 -0.0019519 -0 0.00429542 -0 0.00429538)
(0.00429846 -0.00196209 -0 0.00429849 -0 0.00429847)
(0.00421697 -0.00191173 -0 0.0042169 -0 0.00421694)
(0.00421538 -0.0019108 -0 0.00421537 -0 0.00421537)
(0.0042145 -0.00191244 -0 0.00421457 -0 0.00421454)
(0.00421759 -0.0019227 -0 0.00421761 -0 0.0042176)
(0.00413449 -0.00187145 -0 0.00413444 -0 0.00413447)
(0.00413292 -0.00187047 -0 0.00413292 -0 0.00413292)
(0.00413208 -0.00187222 -0 0.00413213 -0 0.0041321)
(0.00413513 -0.00188257 -0 0.00413513 -0 0.00413513)
(0.00405044 -0.00183028 -0 0.0040504 -0 0.00405042)
(0.00404889 -0.00182974 -0 0.0040489 -0 0.0040489)
(0.00404808 -0.0018313 -0 0.00404812 -0 0.0040481)
(0.00405109 -0.00184166 -0 0.00405108 -0 0.00405109)
(0.00396482 -0.00178861 -0 0.00396481 -0 0.00396482)
(0.00396332 -0.00178793 -0 0.00396333 -0 0.00396333)
(0.00396254 -0.00178984 -0 0.00396256 -0 0.00396255)
(0.00396549 -0.00179987 -0 0.00396547 -0 0.00396548)
(0.00387767 -0.00174613 -0 0.00387767 -0 0.00387767)
(0.00387622 -0.00174548 -0 0.00387622 -0 0.00387622)
(0.00387547 -0.00174745 -0 0.00387546 -0 0.00387546)
(0.00387832 -0.00175736 -0 0.00387832 -0 0.00387832)
(0.00378898 -0.00170296 -0 0.00378901 -0 0.003789)
(0.00378759 -0.00170228 -0 0.00378758 -0 0.00378759)
(0.00378686 -0.00170423 -0 0.00378683 -0 0.00378685)
(0.00378963 -0.00171412 -0 0.00378964 -0 0.00378963)
(0.00369878 -0.0016591 -0 0.00369884 -0 0.00369881)
(0.00369746 -0.00165832 -0 0.00369743 -0 0.00369744)
(0.00369674 -0.00166017 -0 0.00369667 -0 0.0036967)
(0.00369941 -0.00167014 -0 0.00369944 -0 0.00369943)
(0.00360708 -0.00161455 -0 0.00360717 -0 0.00360712)
(0.00360583 -0.00161361 -0 0.00360579 -0 0.00360581)
(0.00360509 -0.00161526 -0 0.003605 -0 0.00360505)
(0.00360769 -0.00162541 -0 0.00360774 -0 0.00360772)
(0.00351389 -0.00156931 -0 0.00351401 -0 0.00351395)
(0.00351272 -0.00156817 -0 0.00351268 -0 0.0035127)
(0.00351195 -0.00156944 -0 0.00351183 -0 0.00351189)
(0.00351448 -0.00157994 -0 0.00351453 -0 0.00351451)
(0.00341924 -0.00152335 -0 0.00341937 -0 0.00341931)
(0.00341815 -0.00152202 -0 0.00341811 -0 0.00341813)
(0.0034173 -0.00152266 -0 0.00341717 -0 0.00341724)
(0.00341981 -0.00153368 -0 0.00341984 -0 0.00341982)
(0.00332315 -0.00147659 -0 0.00332327 -0 0.00332321)
(0.00332215 -0.00147527 -0 0.00332212 -0 0.00332213)
(0.0033212 -0.00147561 -0 0.00332109 -0 0.00332114)
(0.00332366 -0.0014864 -0 0.00332368 -0 0.00332367)
(0.00322566 -0.00142931 -0 0.00322572 -0 0.00322569)
(0.00322472 -0.00142776 -0 0.00322473 -0 0.00322472)
(0.00322367 -0.00142763 -0 0.0032236 -0 0.00322363)
(0.00322608 -0.00143853 -0 0.00322608 -0 0.00322608)
(0.00312674 -0.0013805 -0 0.00312676 -0 0.00312675)
(0.0031259 -0.00137948 -0 0.00312593 -0 0.00312592)
(0.00312473 -0.00137875 -0 0.00312471 -0 0.00312472)
(0.00312712 -0.00139013 -0 0.00312709 -0 0.0031271)
(0.00302645 -0.00133132 -0 0.00302643 -0 0.00302644)
(0.0030257 -0.00133036 -0 0.00302576 -0 0.00302573)
(0.00302445 -0.00132965 -0 0.00302447 -0 0.00302446)
(0.00302681 -0.00134077 -0 0.00302675 -0 0.00302678)
(0.00292483 -0.00128142 -0 0.00292479 -0 0.00292481)
(0.00292415 -0.00128052 -0 0.00292424 -0 0.00292419)
(0.0029229 -0.00128004 -0 0.00292293 -0 0.00292291)
(0.00292519 -0.00129054 -0 0.0029251 -0 0.00292514)
(0.00282193 -0.00123086 -0 0.00282191 -0 0.00282192)
(0.00282129 -0.00122949 -0 0.0028214 -0 0.00282134)
(0.00282013 -0.00123005 -0 0.00282015 -0 0.00282014)
(0.00282231 -0.00123944 -0 0.0028222 -0 0.00282225)
(0.0027178 -0.00117941 -0 0.00271783 -0 0.00271782)
(0.00271722 -0.00117866 -0 0.00271734 -0 0.00271728)
(0.00271618 -0.00117865 -0 0.00271615 -0 0.00271617)
(0.00271822 -0.00118757 -0 0.00271809 -0 0.00271816)
(0.00261257 -0.00112805 -0 0.00261263 -0 0.0026126)
(0.00261199 -0.00112631 -0 0.00261211 -0 0.00261206)
(0.00261111 -0.00112721 -0 0.00261105 -0 0.00261108)
(0.00261294 -0.00113439 -0 0.00261282 -0 0.00261288)
(0.00250625 -0.001075 -0 0.00250632 -0 0.00250629)
(0.00250571 -0.00107373 -0 0.00250581 -0 0.00250576)
(0.00250497 -0.00107458 -0 0.0025049 -0 0.00250493)
(0.00250655 -0.00108059 -0 0.00250645 -0 0.0025065)
(0.00239895 -0.00102151 -0 0.00239899 -0 0.00239897)
(0.00239851 -0.00102085 -0 0.00239856 -0 0.00239853)
(0.0023978 -0.00102055 -0 0.00239775 -0 0.00239777)
(0.00239915 -0.00102649 -0 0.0023991 -0 0.00239913)
(0.00229078 -0.00096727 -0 0.00229078 -0 0.00229078)
(0.00229044 -0.0009665 -0 0.00229045 -0 0.00229044)
(0.00228972 -0.000966289 -0 0.00228972 -0 0.00228972)
(0.0022909 -0.000971896 -0 0.0022909 -0 0.0022909)
(0.0021819 -0.000912286 -0 0.00218185 -0 0.00218187)
(0.00218163 -0.000911454 -0 0.00218159 -0 0.00218161)
(0.00218091 -0.000911485 -0 0.00218096 -0 0.00218094)
(0.00218196 -0.000916824 -0 0.002182 -0 0.00218198)
(0.00207247 -0.0008566 -0 0.0020724 -0 0.00207244)
(0.00207223 -0.000855629 -0 0.00207215 -0 0.00207219)
(0.00207157 -0.000856127 -0 0.00207164 -0 0.0020716)
(0.0020725 -0.000861302 -0 0.00207258 -0 0.00207254)
(0.00196271 -0.000800261 -0 0.00196266 -0 0.00196268)
(0.00196241 -0.000798452 -0 0.00196231 -0 0.00196236)
(0.00196189 -0.000800142 -0 0.00196194 -0 0.00196191)
(0.00196276 -0.000805388 -0 0.00196286 -0 0.00196281)
(0.00185287 -0.000743439 -0 0.00185287 -0 0.00185287)
(0.00185248 -0.000741438 -0 0.00185239 -0 0.00185243)
(0.00185209 -0.000742934 -0 0.00185209 -0 0.00185209)
(0.001853 -0.000748997 -0 0.00185309 -0 0.00185304)
(0.00174328 -0.000686348 -0 0.00174333 -0 0.00174331)
(0.0017428 -0.000683801 -0 0.00174273 -0 0.00174276)
(0.00174249 -0.00068549 -0 0.00174245 -0 0.00174247)
(0.00174347 -0.000691683 -0 0.00174353 -0 0.0017435)
(0.00163435 -0.000628969 -0 0.00163442 -0 0.00163439)
(0.00163378 -0.000625718 -0 0.00163376 -0 0.00163376)
(0.00163353 -0.000627606 -0 0.00163345 -0 0.00163349)
(0.0016345 -0.000633269 -0 0.00163452 -0 0.00163452)
(0.00152659 -0.000571317 -0 0.00152665 -0 0.00152662)
(0.00152598 -0.000568083 -0 0.00152601 -0 0.00152599)
(0.00152563 -0.000568498 -0 0.00152557 -0 0.0015256)
(0.00152661 -0.000574775 -0 0.00152658 -0 0.00152659)
(0.00142059 -0.000512423 -0 0.00142062 -0 0.00142061)
(0.00142006 -0.000510497 -0 0.00142012 -0 0.0014201)
(0.00141953 -0.000510136 -0 0.00141951 -0 0.00141952)
(0.00142051 -0.000516124 -0 0.00142045 -0 0.00142047)
(0.00131722 -0.000454161 -0 0.00131721 -0 0.00131721)
(0.00131684 -0.000452818 -0 0.00131691 -0 0.00131688)
(0.00131619 -0.000452142 -0 0.0013162 -0 0.00131619)
(0.00131711 -0.000457535 -0 0.00131705 -0 0.00131708)
(0.00121763 -0.000396253 -0 0.0012176 -0 0.00121762)
(0.00121737 -0.000395407 -0 0.00121742 -0 0.00121739)
(0.00121672 -0.000394701 -0 0.00121675 -0 0.00121674)
(0.00121755 -0.000399345 -0 0.0012175 -0 0.00121752)
(0.00112321 -0.000338972 -0 0.00112318 -0 0.0011232)
(0.00112303 -0.000338579 -0 0.00112306 -0 0.00112304)
(0.00112246 -0.000337989 -0 0.00112249 -0 0.00112247)
(0.00112319 -0.000341871 -0 0.00112315 -0 0.00112317)
(0.00103564 -0.000282679 -0 0.00103561 -0 0.00103563)
(0.00103549 -0.000282664 -0 0.00103551 -0 0.0010355)
(0.00103503 -0.000282254 -0 0.00103505 -0 0.00103504)
(0.00103569 -0.000285434 -0 0.00103567 -0 0.00103568)
(0.000956907 -0.000227778 -0 0.00095689 -0 0.0009569)
(0.000956783 -0.000228027 -0 0.000956795 -0 0.000956789)
(0.000956417 -0.000227796 -0 0.000956435 -0 0.000956425)
(0.000957034 -0.000230351 -0 0.000957022 -0 0.000957028)
(0.000889328 -0.000174612 -0 0.00088932 -0 0.000889326)
(0.000889218 -0.000174999 -0 0.000889225 -0 0.000889222)
(0.000888935 -0.000174883 -0 0.000888944 -0 0.000888938)
(0.000889527 -0.000176882 -0 0.00088952 -0 0.000889523)
(0.000835438 -0.000123312 -0 0.000835436 -0 0.000835438)
(0.000835323 -0.00012374 -0 0.000835328 -0 0.000835325)
(0.000835099 -0.000123635 -0 0.000835101 -0 0.000835099)
(0.000835689 -0.000125074 -0 0.000835684 -0 0.000835687)
(0.000797735 -7.36362e-05 -0 0.000797744 -0 0.00079774)
(0.00079755 -7.37512e-05 -0 0.000797557 -0 0.000797554)
(0.00079744 -7.38866e-05 -0 0.000797432 -0 0.000797435)
(0.000798044 -7.47645e-05 -0 0.000798037 -0 0.000798039)
(0.000778228 -2.45456e-05 -0 0.000778246 -0 0.000778239)
(0.000778078 -2.47837e-05 -0 0.000778083 -0 0.00077808)
(0.000778064 -2.48367e-05 -0 0.000778046 -0 0.000778054)
(0.000778679 -2.51295e-05 -0 0.000778674 -0 0.000778677)
)
;

boundaryField
{
    inlet
    {
        type            cyclic;
    }
    outlet
    {
        type            cyclic;
    }
    fixedWalls-bottom
    {
        type            kqRWallFunction;
        value           nonuniform List<symmTensor> 4((4.09305e-08 -0 -0 4.09305e-08 -0 4.09305e-08) (4.09954e-08 -0 -0 4.09954e-08 -0 4.09954e-08) (4.10293e-08 -0 -0 4.10293e-08 -0 4.10293e-08) (4.10215e-08 -0 -0 4.10215e-08 -0 4.10215e-08));
    }
    fixedWalls-top
    {
        type            symmetry;
    }
    frontAndBack
    {
        type            empty;
    }
}


// ************************************************************************* //
