/*--------------------------------*- C++ -*----------------------------------*\
  =========                 |
  \\      /  F ield         | OpenFOAM: The Open Source CFD Toolbox
   \\    /   O peration     | Website:  https://openfoam.org
    \\  /    A nd           | Version:  10
     \\/     M anipulation  |
\*---------------------------------------------------------------------------*/
FoamFile
{
    format      ascii;
    class       volVectorField;
    location    "3244";
    object      U;
}
// * * * * * * * * * * * * * * * * * * * * * * * * * * * * * * * * * * * * * //

dimensions      [0 1 -1 0 0 0 0];

internalField   nonuniform List<vector> 
400
(
(0.0181631 5.79462e-10 0)
(0.0181644 -1.43989e-09 0)
(0.0181656 -5.11667e-10 0)
(0.0181654 1.43924e-09 0)
(0.0545768 9.43172e-09 0)
(0.0545806 -2.33661e-08 0)
(0.0545842 -9.27967e-09 0)
(0.0545837 2.33636e-08 0)
(0.0913295 2.81365e-08 0)
(0.0913361 -6.94599e-08 0)
(0.0913422 -2.79914e-08 0)
(0.0913412 6.94552e-08 0)
(0.128415 5.77356e-08 0)
(0.128424 -1.42308e-07 0)
(0.128433 -5.75994e-08 0)
(0.128431 1.42301e-07 0)
(0.165806 9.82915e-08 0)
(0.165819 -2.43438e-07 0)
(0.16583 -9.81583e-08 0)
(0.165828 2.43429e-07 0)
(0.203433 1.49369e-07 0)
(0.203449 -3.74913e-07 0)
(0.203463 -1.49237e-07 0)
(0.20346 3.74901e-07 0)
(0.241143 2.09531e-07 0)
(0.241163 -5.38456e-07 0)
(0.241179 -2.09399e-07 0)
(0.241176 5.38442e-07 0)
(0.278679 2.75713e-07 0)
(0.278703 -7.33653e-07 0)
(0.27872 -2.75583e-07 0)
(0.278716 7.33637e-07 0)
(0.31568 3.42837e-07 0)
(0.315707 -9.55606e-07 0)
(0.315725 -3.42709e-07 0)
(0.315719 9.55588e-07 0)
(0.351735 4.04012e-07 0)
(0.351763 -1.19311e-06 0)
(0.35178 -4.03885e-07 0)
(0.351773 1.19309e-06 0)
(0.386454 4.51519e-07 0)
(0.386482 -1.42896e-06 0)
(0.386497 -4.51393e-07 0)
(0.386489 1.42894e-06 0)
(0.419544 4.78318e-07 0)
(0.419568 -1.64306e-06 0)
(0.41958 -4.78192e-07 0)
(0.41957 1.64304e-06 0)
(0.450824 4.79521e-07 0)
(0.450843 -1.81725e-06 0)
(0.450851 -4.79395e-07 0)
(0.45084 1.81722e-06 0)
(0.480225 4.53368e-07 0)
(0.480238 -1.93983e-06 0)
(0.480243 -4.53243e-07 0)
(0.480231 1.93981e-06 0)
(0.507759 4.01382e-07 0)
(0.507765 -2.00814e-06 0)
(0.507767 -4.01257e-07 0)
(0.507754 2.00811e-06 0)
(0.533491 3.27204e-07 0)
(0.533492 -2.02853e-06 0)
(0.533492 -3.27084e-07 0)
(0.533478 2.0285e-06 0)
(0.557562 2.31345e-07 0)
(0.557563 -2.02919e-06 0)
(0.557561 -2.31228e-07 0)
(0.557545 2.02915e-06 0)
(0.580145 1.20723e-07 0)
(0.580149 -2.02271e-06 0)
(0.580145 -1.20601e-07 0)
(0.580129 2.02268e-06 0)
(0.601366 -5.98346e-10 0)
(0.601372 -2.0296e-06 0)
(0.601368 7.18898e-10 0)
(0.601352 2.02957e-06 0)
(0.621324 -1.23208e-07 0)
(0.621332 -2.04949e-06 0)
(0.621328 1.23328e-07 0)
(0.621312 2.04945e-06 0)
(0.640114 -2.38888e-07 0)
(0.640123 -2.07864e-06 0)
(0.640119 2.39007e-07 0)
(0.640105 2.07861e-06 0)
(0.657828 -3.41999e-07 0)
(0.657837 -2.11363e-06 0)
(0.657834 3.42118e-07 0)
(0.657821 2.11359e-06 0)
(0.674556 -4.29392e-07 0)
(0.674564 -2.15129e-06 0)
(0.674562 4.29511e-07 0)
(0.674551 2.15124e-06 0)
(0.690383 -5.00068e-07 0)
(0.69039 -2.18866e-06 0)
(0.690389 5.00186e-07 0)
(0.69038 2.18862e-06 0)
(0.70539 -5.54795e-07 0)
(0.705396 -2.22326e-06 0)
(0.705395 5.54913e-07 0)
(0.705388 2.22322e-06 0)
(0.719652 -5.95553e-07 0)
(0.719657 -2.25327e-06 0)
(0.719656 5.95672e-07 0)
(0.719651 2.25322e-06 0)
(0.73324 -6.25091e-07 0)
(0.733244 -2.27753e-06 0)
(0.733244 6.25209e-07 0)
(0.73324 2.27748e-06 0)
(0.746219 -6.46477e-07 0)
(0.746222 -2.29562e-06 0)
(0.746221 6.46595e-07 0)
(0.746219 2.29557e-06 0)
(0.758647 -6.62767e-07 0)
(0.758649 -2.30771e-06 0)
(0.758648 6.62885e-07 0)
(0.758647 2.30766e-06 0)
(0.770577 -6.76725e-07 0)
(0.770579 -2.31448e-06 0)
(0.770578 6.76843e-07 0)
(0.770577 2.31443e-06 0)
(0.782058 -6.90605e-07 0)
(0.782059 -2.31703e-06 0)
(0.782058 6.90722e-07 0)
(0.782057 2.31698e-06 0)
(0.793133 -7.06094e-07 0)
(0.793135 -2.31673e-06 0)
(0.793133 7.06212e-07 0)
(0.793132 2.31668e-06 0)
(0.803843 -7.24451e-07 0)
(0.803845 -2.31499e-06 0)
(0.803843 7.24569e-07 0)
(0.803842 2.31494e-06 0)
(0.814222 -7.46749e-07 0)
(0.814224 -2.31292e-06 0)
(0.814222 7.46866e-07 0)
(0.814221 2.31287e-06 0)
(0.824302 -7.74099e-07 0)
(0.824305 -2.311e-06 0)
(0.824302 7.74217e-07 0)
(0.824301 2.31094e-06 0)
(0.834113 -8.07704e-07 0)
(0.834116 -2.30868e-06 0)
(0.834112 8.07821e-07 0)
(0.834111 2.30862e-06 0)
(0.843678 -8.487e-07 0)
(0.843681 -2.30394e-06 0)
(0.843677 8.48818e-07 0)
(0.843675 2.30388e-06 0)
(0.853021 -8.97583e-07 0)
(0.853024 -2.29278e-06 0)
(0.853019 8.97701e-07 0)
(0.853018 2.29272e-06 0)
(0.862162 -9.53096e-07 0)
(0.862164 -2.26878e-06 0)
(0.862157 9.53215e-07 0)
(0.862157 2.26872e-06 0)
(0.871118 -1.01023e-06 0)
(0.871119 -2.22297e-06 0)
(0.87111 1.01035e-06 0)
(0.871112 2.2229e-06 0)
(0.879904 -1.05681e-06 0)
(0.879903 -2.14463e-06 0)
(0.879892 1.05692e-06 0)
(0.879899 2.14457e-06 0)
(0.888534 -1.06884e-06 0)
(0.888529 -2.02398e-06 0)
(0.888517 1.06896e-06 0)
(0.888531 2.02394e-06 0)
(0.897021 -1.00942e-06 0)
(0.897011 -1.85693e-06 0)
(0.896998 1.00954e-06 0)
(0.897023 1.85692e-06 0)
(0.905377 -8.47296e-07 0)
(0.905364 -1.64961e-06 0)
(0.905351 8.47423e-07 0)
(0.905388 1.64953e-06 0)
(0.913624 -6.10875e-07 0)
(0.913609 -1.41574e-06 0)
(0.913596 6.10996e-07 0)
(0.913641 1.41559e-06 0)
(0.921787 -3.48408e-07 0)
(0.921773 -1.17322e-06 0)
(0.921759 3.48523e-07 0)
(0.921802 1.17314e-06 0)
(0.929883 -1.13811e-07 0)
(0.929871 -9.35605e-07 0)
(0.929856 1.13929e-07 0)
(0.929893 9.35577e-07 0)
(0.937919 5.36045e-08 0)
(0.937909 -7.10063e-07 0)
(0.937895 -5.34847e-08 0)
(0.937925 7.10004e-07 0)
(0.945902 1.69368e-07 0)
(0.945894 -4.98597e-07 0)
(0.945879 -1.69248e-07 0)
(0.945904 4.98529e-07 0)
(0.953836 2.44568e-07 0)
(0.95383 -3.0287e-07 0)
(0.953816 -2.44449e-07 0)
(0.953836 3.02803e-07 0)
(0.961726 2.86976e-07 0)
(0.961721 -1.24e-07 0)
(0.961708 -2.86857e-07 0)
(0.961725 1.23936e-07 0)
(0.969576 3.07255e-07 0)
(0.969572 3.84056e-08 0)
(0.96956 -3.07137e-07 0)
(0.969573 -3.84722e-08 0)
(0.977388 3.10631e-07 0)
(0.977384 1.84053e-07 0)
(0.977374 -3.10514e-07 0)
(0.977384 -1.84125e-07 0)
(0.985165 3.04479e-07 0)
(0.985161 3.12799e-07 0)
(0.985152 -3.04361e-07 0)
(0.98516 -3.12871e-07 0)
(0.992908 2.90678e-07 0)
(0.992906 4.29836e-07 0)
(0.992897 -2.9056e-07 0)
(0.992904 -4.29903e-07 0)
(1.00062 2.72918e-07 0)
(1.00062 5.33855e-07 0)
(1.00061 -2.72801e-07 0)
(1.00062 -5.33925e-07 0)
(1.0083 2.60252e-07 0)
(1.0083 6.24866e-07 0)
(1.00829 -2.60134e-07 0)
(1.0083 -6.24943e-07 0)
(1.01595 2.57613e-07 0)
(1.01595 7.02798e-07 0)
(1.01595 -2.57494e-07 0)
(1.01595 -7.02873e-07 0)
(1.02358 2.77752e-07 0)
(1.02358 7.6567e-07 0)
(1.02357 -2.77633e-07 0)
(1.02358 -7.65744e-07 0)
(1.03118 3.15802e-07 0)
(1.03118 8.14793e-07 0)
(1.03117 -3.15683e-07 0)
(1.03118 -8.14872e-07 0)
(1.03875 3.81314e-07 0)
(1.03875 8.53996e-07 0)
(1.03875 -3.81197e-07 0)
(1.03876 -8.54077e-07 0)
(1.0463 4.55401e-07 0)
(1.0463 8.8511e-07 0)
(1.0463 -4.55283e-07 0)
(1.0463 -8.85186e-07 0)
(1.05382 5.33479e-07 0)
(1.05382 9.05845e-07 0)
(1.05382 -5.33358e-07 0)
(1.05382 -9.05921e-07 0)
(1.06131 5.96666e-07 0)
(1.06131 9.13882e-07 0)
(1.06131 -5.96547e-07 0)
(1.06132 -9.13962e-07 0)
(1.06878 6.43629e-07 0)
(1.06878 9.08993e-07 0)
(1.06878 -6.4351e-07 0)
(1.06878 -9.09071e-07 0)
(1.07622 6.69405e-07 0)
(1.07622 8.94587e-07 0)
(1.07623 -6.69285e-07 0)
(1.07622 -8.94664e-07 0)
(1.08364 6.75399e-07 0)
(1.08364 8.82516e-07 0)
(1.08364 -6.75275e-07 0)
(1.08364 -8.82594e-07 0)
(1.09102 6.55477e-07 0)
(1.09102 8.84957e-07 0)
(1.09102 -6.5535e-07 0)
(1.09102 -8.85037e-07 0)
(1.09838 6.03429e-07 0)
(1.09838 9.09074e-07 0)
(1.09838 -6.03299e-07 0)
(1.09838 -9.09155e-07 0)
(1.10571 5.14571e-07 0)
(1.10571 9.54867e-07 0)
(1.1057 -5.14444e-07 0)
(1.1057 -9.54949e-07 0)
(1.11301 3.88416e-07 0)
(1.11301 1.0126e-06 0)
(1.113 -3.88298e-07 0)
(1.113 -1.01268e-06 0)
(1.12027 2.34625e-07 0)
(1.12028 1.06485e-06 0)
(1.12027 -2.345e-07 0)
(1.12026 -1.06496e-06 0)
(1.1275 8.39734e-08 0)
(1.12751 1.10615e-06 0)
(1.1275 -8.3846e-08 0)
(1.1275 -1.10624e-06 0)
(1.1347 -3.2042e-08 0)
(1.1347 1.11516e-06 0)
(1.1347 3.21721e-08 0)
(1.13469 -1.11529e-06 0)
(1.14185 -8.70912e-08 0)
(1.14185 1.09624e-06 0)
(1.14185 8.72304e-08 0)
(1.14185 -1.09636e-06 0)
(1.14897 -7.60528e-08 0)
(1.14897 1.03497e-06 0)
(1.14897 7.61827e-08 0)
(1.14897 -1.03508e-06 0)
(1.15604 -2.54767e-08 0)
(1.15604 9.31053e-07 0)
(1.15605 2.55935e-08 0)
(1.15604 -9.31141e-07 0)
(1.16306 1.15624e-08 0)
(1.16306 7.92903e-07 0)
(1.16307 -1.14406e-08 0)
(1.16306 -7.92962e-07 0)
(1.17003 1.07986e-08 0)
(1.17003 6.1982e-07 0)
(1.17004 -1.06818e-08 0)
(1.17003 -6.19904e-07 0)
(1.17694 -6.09585e-08 0)
(1.17695 4.29412e-07 0)
(1.17696 6.10868e-08 0)
(1.17694 -4.29532e-07 0)
(1.18379 -1.70479e-07 0)
(1.1838 2.61775e-07 0)
(1.1838 1.70602e-07 0)
(1.18379 -2.61879e-07 0)
(1.19058 -2.6589e-07 0)
(1.19058 1.2984e-07 0)
(1.19058 2.66005e-07 0)
(1.19057 -1.29945e-07 0)
(1.19729 -3.07309e-07 0)
(1.19729 7.98835e-08 0)
(1.19729 3.0744e-07 0)
(1.19729 -7.99663e-08 0)
(1.20392 -2.52612e-07 0)
(1.20391 1.11333e-07 0)
(1.20391 2.52736e-07 0)
(1.20391 -1.11424e-07 0)
(1.21045 -1.20887e-07 0)
(1.21044 2.2536e-07 0)
(1.21044 1.21008e-07 0)
(1.21045 -2.255e-07 0)
(1.21688 1.01474e-08 0)
(1.21687 4.10004e-07 0)
(1.21687 -1.00018e-08 0)
(1.21688 -4.10132e-07 0)
(1.2232 8.76548e-08 0)
(1.22319 6.12323e-07 0)
(1.22319 -8.75149e-08 0)
(1.22319 -6.12399e-07 0)
(1.22938 4.37583e-08 0)
(1.22938 7.9288e-07 0)
(1.22937 -4.36414e-08 0)
(1.22937 -7.92875e-07 0)
(1.23542 -1.01326e-07 0)
(1.23542 8.99147e-07 0)
(1.23541 1.01379e-07 0)
(1.23541 -8.99107e-07 0)
(1.24128 -2.70139e-07 0)
(1.24129 8.64105e-07 0)
(1.24129 2.70201e-07 0)
(1.24128 -8.64305e-07 0)
(1.24695 -3.83519e-07 0)
(1.24696 7.58233e-07 0)
(1.24696 3.83576e-07 0)
(1.24696 -7.58284e-07 0)
(1.25239 -3.97197e-07 0)
(1.25239 5.73558e-07 0)
(1.2524 3.97123e-07 0)
(1.2524 -5.73549e-07 0)
(1.25755 -3.27293e-07 0)
(1.25755 4.00521e-07 0)
(1.25756 3.27158e-07 0)
(1.25755 -4.00436e-07 0)
(1.26237 -2.14207e-07 0)
(1.26237 2.69148e-07 0)
(1.26237 2.14038e-07 0)
(1.26237 -2.69001e-07 0)
(1.26678 -9.49907e-08 0)
(1.26678 1.77955e-07 0)
(1.26679 9.48042e-08 0)
(1.26678 -1.77764e-07 0)
(1.2707 3.1076e-09 0)
(1.2707 1.19831e-07 0)
(1.27071 -3.29216e-09 0)
(1.2707 -1.19619e-07 0)
(1.27404 6.77529e-08 0)
(1.27404 8.64002e-08 0)
(1.27404 -6.79389e-08 0)
(1.27404 -8.61925e-08 0)
(1.27669 1.07111e-07 0)
(1.27669 6.41543e-08 0)
(1.27669 -1.07319e-07 0)
(1.27669 -6.39448e-08 0)
(1.27854 1.03131e-07 0)
(1.27854 3.46889e-08 0)
(1.27854 -1.03286e-07 0)
(1.27853 -3.45374e-08 0)
(1.27949 4.65725e-08 0)
(1.27949 1.81177e-08 0)
(1.27949 -4.65478e-08 0)
(1.27949 -1.79808e-08 0)
)
;

boundaryField
{
    inlet
    {
        type            cyclic;
    }
    outlet
    {
        type            cyclic;
    }
    fixedWalls-bottom
    {
        type            noSlip;
    }
    fixedWalls-top
    {
        type            symmetry;
    }
    frontAndBack
    {
        type            empty;
    }
}


// ************************************************************************* //
