/*--------------------------------*- C++ -*----------------------------------*\
  =========                 |
  \\      /  F ield         | OpenFOAM: The Open Source CFD Toolbox
   \\    /   O peration     | Website:  https://openfoam.org
    \\  /    A nd           | Version:  10
     \\/     M anipulation  |
\*---------------------------------------------------------------------------*/
FoamFile
{
    format      ascii;
    class       volScalarField;
    location    "2034";
    object      k;
}
// * * * * * * * * * * * * * * * * * * * * * * * * * * * * * * * * * * * * * //

dimensions      [0 2 -2 0 0 0 0];

internalField   nonuniform List<scalar> 
400
(
8.41408e-10
8.41456e-10
8.40756e-10
8.41536e-10
2.52447e-08
2.52461e-08
2.52251e-08
2.52485e-08
1.78777e-07
1.78788e-07
1.78639e-07
1.78805e-07
6.49948e-07
6.49985e-07
6.49443e-07
6.50047e-07
1.68181e-06
1.68191e-06
1.68051e-06
1.68207e-06
3.56244e-06
3.56264e-06
3.55966e-06
3.56299e-06
6.62362e-06
6.62397e-06
6.61842e-06
6.62464e-06
1.1243e-05
1.12435e-05
1.1234e-05
1.12447e-05
1.78479e-05
1.78484e-05
1.78333e-05
1.78504e-05
2.69196e-05
2.69197e-05
2.68967e-05
2.6923e-05
3.89966e-05
3.89954e-05
3.89618e-05
3.90006e-05
5.46745e-05
5.46705e-05
5.46228e-05
5.46786e-05
7.46007e-05
7.4591e-05
7.45254e-05
7.46035e-05
9.94603e-05
9.94412e-05
9.9353e-05
9.94601e-05
0.000129954
0.00012992
0.000129804
0.000129948
0.000166762
0.000166707
0.000166558
0.000166749
0.000210502
0.000210419
0.000210231
0.000210481
0.000261679
0.000261561
0.000261328
0.00026165
0.00032063
0.000320467
0.000320188
0.000320595
0.000387474
0.00038726
0.000386931
0.000387441
0.000462079
0.000461806
0.000461426
0.000462056
0.000544037
0.000543699
0.000543269
0.000544037
0.000632669
0.000632262
0.000631784
0.000632705
0.000727054
0.000726574
0.000726051
0.000727137
0.00082607
0.000825515
0.000824951
0.000826211
0.000928459
0.000927829
0.000927225
0.000928663
0.00103289
0.00103218
0.00103154
0.00103315
0.00113802
0.00113724
0.00113655
0.00113832
0.00124255
0.00124169
0.00124096
0.00124287
0.00134529
0.00134435
0.00134357
0.00134559
0.00144533
0.0014443
0.00144347
0.00144565
0.00154209
0.00154094
0.00154009
0.00154243
0.00163499
0.00163372
0.00163284
0.00163538
0.00172352
0.0017221
0.00172122
0.00172397
0.00180725
0.00180565
0.00180477
0.00180778
0.00188575
0.00188396
0.0018831
0.00188639
0.00195864
0.00195665
0.00195583
0.00195945
0.00202552
0.00202333
0.00202257
0.00202659
0.00208597
0.00208363
0.00208291
0.00208741
0.0021395
0.00213707
0.00213641
0.00214149
0.00218632
0.00218389
0.00218317
0.00218874
0.00222652
0.00222418
0.00222335
0.00222934
0.00226024
0.00225804
0.0022571
0.00226342
0.00228763
0.00228559
0.0022846
0.00229113
0.00230893
0.00230699
0.00230602
0.00231263
0.00232431
0.00232245
0.00232154
0.00232811
0.00233387
0.0023322
0.00233136
0.00233778
0.00233782
0.00233651
0.00233559
0.00234186
0.00233639
0.00233545
0.00233447
0.0023406
0.00232981
0.0023292
0.00232821
0.00233419
0.00231828
0.00231794
0.00231703
0.00232286
0.00230203
0.0023019
0.0023011
0.0023068
0.00228123
0.00228128
0.00228062
0.0022862
0.00225607
0.00225626
0.00225574
0.00226122
0.00222671
0.00222702
0.00222663
0.00223205
0.0021933
0.00219372
0.00219347
0.00219883
0.00215598
0.00215653
0.0021564
0.00216172
0.0021149
0.00211559
0.00211558
0.00212087
0.0020702
0.00207106
0.00207115
0.00207644
0.00202206
0.00202307
0.00202326
0.00202855
0.00197068
0.00197179
0.00197206
0.00197735
0.00191621
0.00191735
0.0019177
0.00192298
0.00185879
0.00185993
0.00186033
0.00186557
0.00179857
0.00179966
0.0018001
0.00180529
0.00173569
0.00173672
0.00173718
0.00174228
0.00167029
0.00167126
0.00167173
0.00167671
0.00160256
0.00160345
0.00160392
0.00160875
0.00153268
0.00153348
0.00153395
0.00153859
0.00146085
0.00146157
0.00146201
0.00146645
0.00138732
0.00138791
0.00138832
0.00139254
0.00131233
0.00131277
0.00131313
0.00131712
0.00123619
0.0012364
0.0012367
0.00124047
0.00115921
0.00115907
0.00115931
0.00116291
0.0010817
0.00108106
0.00108133
0.0010848
0.00100394
0.00100278
0.00100317
0.00100653
0.000926255
0.000924716
0.00092529
0.000928487
0.000849072
0.000847832
0.000848157
0.000851053
0.000772952
0.000772103
0.000772241
0.000774794
0.000698519
0.000697908
0.000697954
0.00070024
0.000626292
0.000625762
0.00062577
0.00062792
0.000556707
0.000556296
0.000556224
0.000558375
0.00049028
0.000490405
0.000489864
0.000492135
0.000427856
0.000428217
0.000427527
0.000429669
0.000369812
0.00037023
0.000369562
0.000371458
0.000316447
0.000316844
0.000316251
0.000317875
0.000267987
0.000268334
0.000267819
0.000269183
0.000224556
0.000224848
0.000224402
0.00022553
0.000186172
0.000186409
0.000186027
0.000186943
0.000152739
0.000152922
0.000152597
0.000153329
0.000124053
0.000124178
0.00012391
0.000124483
9.98199e-05
9.98756e-05
9.96626e-05
0.000100101
7.96657e-05
7.96411e-05
7.94751e-05
7.98099e-05
6.31146e-05
6.30626e-05
6.29354e-05
6.31873e-05
4.97595e-05
4.97107e-05
4.96106e-05
4.97986e-05
3.91931e-05
3.91541e-05
3.90755e-05
3.92165e-05
3.10292e-05
3.0999e-05
3.09373e-05
3.10447e-05
2.4924e-05
2.49002e-05
2.4851e-05
2.49354e-05
2.0592e-05
2.05724e-05
2.05321e-05
2.06014e-05
1.78161e-05
1.77993e-05
1.77649e-05
1.78253e-05
1.64557e-05
1.64416e-05
1.641e-05
1.64661e-05
)
;

boundaryField
{
    inlet
    {
        type            cyclic;
    }
    outlet
    {
        type            cyclic;
    }
    fixedWalls-bottom
    {
        type            kqRWallFunction;
        value           nonuniform List<scalar> 4(8.41408e-10 8.41456e-10 8.40756e-10 8.41536e-10);
    }
    fixedWalls-top
    {
        type            symmetry;
    }
    frontAndBack
    {
        type            empty;
    }
}


// ************************************************************************* //
