/*--------------------------------*- C++ -*----------------------------------*\
  =========                 |
  \\      /  F ield         | OpenFOAM: The Open Source CFD Toolbox
   \\    /   O peration     | Website:  https://openfoam.org
    \\  /    A nd           | Version:  10
     \\/     M anipulation  |
\*---------------------------------------------------------------------------*/
FoamFile
{
    format      ascii;
    class       surfaceScalarField;
    location    "2034";
    object      phi;
}
// * * * * * * * * * * * * * * * * * * * * * * * * * * * * * * * * * * * * * //

dimensions      [0 3 -1 0 0 0 0];

internalField   nonuniform List<scalar> 
696
(
7.52616e-05
-4.40348e-09
7.52629e-05
-1.34142e-09
7.52585e-05
4.43629e-09
1.3415e-09
0.000229337
-1.68193e-08
0.00022934
-5.28362e-09
0.000229328
1.68524e-08
5.2838e-09
0.00038919
-3.66168e-08
0.000389197
-1.17933e-08
0.000389177
3.66493e-08
1.17936e-08
0.000554972
-6.32746e-08
0.000554981
-2.08299e-08
0.000554955
6.33072e-08
2.08303e-08
0.000726836
-9.62441e-08
0.000726848
-3.23181e-08
0.000726815
9.62761e-08
3.23186e-08
0.000904936
-1.3495e-07
0.00090495
-4.614e-08
0.000904911
1.34982e-07
4.61407e-08
0.00108943
-1.78802e-07
0.00108944
-6.21258e-08
0.0010894
1.78833e-07
6.21266e-08
0.00128047
-2.27197e-07
0.00128048
-8.00478e-08
0.00128043
2.27228e-07
8.00488e-08
0.0014782
-2.79527e-07
0.00147822
-9.96127e-08
0.00147817
2.79558e-07
9.96138e-08
0.00168279
-3.35181e-07
0.00168281
-1.20458e-07
0.00168276
3.35212e-07
1.20459e-07
0.00189437
-3.9355e-07
0.00189439
-1.42144e-07
0.00189433
3.9358e-07
1.42146e-07
0.00211307
-4.54021e-07
0.00211309
-1.64163e-07
0.00211303
4.54051e-07
1.64165e-07
0.00233902
-5.15985e-07
0.00233904
-1.85935e-07
0.00233898
5.16014e-07
1.85937e-07
0.0025723
-5.78827e-07
0.00257232
-2.06831e-07
0.00257226
5.78856e-07
2.06834e-07
0.00281301
-6.41925e-07
0.00281303
-2.26208e-07
0.00281297
6.41953e-07
2.26211e-07
0.00306119
-7.04638e-07
0.00306121
-2.43459e-07
0.00306114
7.04665e-07
2.43462e-07
0.00331685
-7.66332e-07
0.00331686
-2.5809e-07
0.0033168
7.66359e-07
2.58093e-07
0.00357997
-8.26354e-07
0.00357998
-2.69779e-07
0.00357992
8.2638e-07
2.69782e-07
0.00385048
-8.84069e-07
0.00385049
-2.78413e-07
0.00385043
8.84095e-07
2.78416e-07
0.00412828
-9.38987e-07
0.00412829
-2.84136e-07
0.00412823
9.39012e-07
2.8414e-07
0.00441323
-9.90884e-07
0.00441323
-2.87356e-07
0.00441318
9.90908e-07
2.8736e-07
0.00470515
-1.03994e-06
0.00470516
-2.88697e-07
0.00470511
1.03996e-06
2.88702e-07
0.00500387
-1.0869e-06
0.00500387
-2.88851e-07
0.00500382
1.08692e-06
2.88856e-07
0.00530918
-1.1332e-06
0.00530918
-2.88376e-07
0.00530914
1.13322e-06
2.88381e-07
0.00562092
-1.18118e-06
0.00562092
-2.87506e-07
0.00562087
1.1812e-06
2.87512e-07
0.00593891
-1.23422e-06
0.00593891
-2.85982e-07
0.00593885
1.23424e-06
2.85988e-07
0.00626303
-1.29678e-06
0.00626302
-2.82818e-07
0.00626296
1.2968e-06
2.82824e-07
0.00659318
-1.37444e-06
0.00659318
-2.76006e-07
0.0065931
1.37445e-06
2.76013e-07
0.00692933
-1.47372e-06
0.00692931
-2.62102e-07
0.00692921
1.47374e-06
2.62109e-07
0.00727152
-1.58226e-06
0.00727149
-2.39843e-07
0.00727138
1.58228e-06
2.3985e-07
0.00761997
-1.68286e-06
0.00761993
-2.08031e-07
0.00761983
1.68288e-06
2.08039e-07
0.00797484
-1.77312e-06
0.00797479
-1.6249e-07
0.0079747
1.77314e-06
1.62498e-07
0.00833619
-1.84998e-06
0.00833612
-9.92012e-08
0.00833605
1.85e-06
9.92096e-08
0.00870405
-1.90839e-06
0.00870397
-1.47268e-08
0.00870391
1.90841e-06
1.47355e-08
0.00907849
-1.94035e-06
0.00907838
9.32247e-08
0.00907835
1.94036e-06
-9.32156e-08
0.00945952
-1.93368e-06
0.00945939
2.24777e-07
0.0094594
1.93369e-06
-2.24768e-07
0.00984717
-1.87066e-06
0.00984702
3.76192e-07
0.00984708
1.87067e-06
-3.76182e-07
0.0102414
-1.72693e-06
0.0102412
5.37309e-07
0.0102414
1.72694e-06
-5.37299e-07
0.0106422
-1.47712e-06
0.010642
6.90124e-07
0.0106423
1.47713e-06
-6.90114e-07
0.01105
-1.20022e-06
0.0110498
8.42105e-07
0.0110501
1.20023e-06
-8.42094e-07
0.0114653
-9.84601e-07
0.0114651
1.00025e-06
0.0114653
9.8461e-07
-1.00024e-06
0.0118884
-8.2002e-07
0.0118883
1.14178e-06
0.0118884
8.20028e-07
-1.14177e-06
0.0123196
-6.93362e-07
0.0123195
1.24991e-06
0.0123196
6.93368e-07
-1.2499e-06
0.0127591
-5.94392e-07
0.012759
1.32722e-06
0.0127591
5.94397e-07
-1.3272e-06
0.0132071
-5.19844e-07
0.0132071
1.37757e-06
0.0132071
5.19846e-07
-1.37755e-06
0.013664
-4.77333e-07
0.013664
1.38416e-06
0.013664
4.77334e-07
-1.38415e-06
0.0141299
-4.77108e-07
0.0141299
1.34924e-06
0.0141299
4.77106e-07
-1.34922e-06
0.0146052
-4.93987e-07
0.0146052
1.29377e-06
0.0146052
4.93983e-07
-1.29375e-06
0.01509
-4.92682e-07
0.01509
1.22723e-06
0.01509
4.92675e-07
-1.2272e-06
0.0155846
-4.66221e-07
0.0155847
1.1563e-06
0.0155847
4.66212e-07
-1.15627e-06
0.0160893
-4.14593e-07
0.0160894
1.08731e-06
0.0160894
4.14581e-07
-1.08728e-06
0.0166044
-3.41135e-07
0.0166045
1.02488e-06
0.0166046
3.4112e-07
-1.02484e-06
0.0171301
-2.49861e-07
0.0171302
9.70854e-07
0.0171303
2.49842e-07
-9.70818e-07
0.0176667
-1.44167e-07
0.0176668
9.23766e-07
0.0176669
1.44145e-07
-9.23727e-07
0.0182144
-2.66438e-08
0.0182145
8.78973e-07
0.0182146
2.66177e-08
-8.7893e-07
0.0187735
1.00629e-07
0.0187736
8.2964e-07
0.0187737
-1.00659e-07
-8.29593e-07
0.0193443
2.35172e-07
0.0193444
7.68662e-07
0.0193445
-2.35206e-07
-7.68612e-07
0.019927
3.728e-07
0.0199271
6.92357e-07
0.0199272
-3.72838e-07
-6.92303e-07
0.0205219
5.07178e-07
0.0205219
6.06339e-07
0.0205221
-5.0722e-07
-6.06282e-07
0.0211292
6.32203e-07
0.0211293
5.29352e-07
0.0211294
-6.3225e-07
-5.2929e-07
0.0217492
7.4145e-07
0.0217493
4.75952e-07
0.0217494
-7.41502e-07
-4.75886e-07
0.0223822
8.28714e-07
0.0223822
4.44707e-07
0.0223823
-8.2877e-07
-4.44637e-07
0.0230283
8.9148e-07
0.0230283
4.28292e-07
0.0230284
-8.9154e-07
-4.28218e-07
0.0236879
9.30169e-07
0.0236879
4.18782e-07
0.0236879
-9.30233e-07
-4.18704e-07
0.0243611
9.4665e-07
0.0243611
4.10143e-07
0.0243611
-9.46717e-07
-4.10063e-07
0.0250481
9.42822e-07
0.0250481
3.99173e-07
0.0250481
-9.42892e-07
-3.99091e-07
0.0257493
9.19604e-07
0.0257493
3.85801e-07
0.0257492
-9.19675e-07
-3.85717e-07
0.0264647
8.76607e-07
0.0264647
3.73405e-07
0.0264646
-8.76679e-07
-3.73321e-07
0.0271946
8.12927e-07
0.0271946
3.69231e-07
0.0271945
-8.12999e-07
-3.69147e-07
0.0279391
7.29308e-07
0.027939
3.84113e-07
0.027939
-7.2938e-07
-3.8403e-07
0.0286983
6.31988e-07
0.0286983
4.30206e-07
0.0286982
-6.32059e-07
-4.30124e-07
0.0294724
5.37642e-07
0.0294723
5.14688e-07
0.0294722
-5.37709e-07
-5.1461e-07
0.0302614
4.74341e-07
0.0302613
6.26699e-07
0.0302612
-4.74406e-07
-6.26625e-07
0.0310652
4.62807e-07
0.0310651
7.23659e-07
0.0310651
-4.62866e-07
-7.2359e-07
0.031884
4.79072e-07
0.0318839
7.55986e-07
0.0318839
-4.79123e-07
-7.55926e-07
0.0327176
3.88197e-07
0.0327176
7.13244e-07
0.0327175
-3.88237e-07
-7.13195e-07
0.0335657
2.12194e-07
0.0335658
6.20464e-07
0.0335656
-2.12224e-07
-6.20425e-07
0.0344281
1.01206e-07
0.0344281
5.38104e-07
0.034428
-1.01227e-07
-5.38074e-07
0.0353042
6.65016e-08
0.0353043
5.10668e-07
0.0353042
-6.65149e-08
-5.10647e-07
0.0361938
7.99465e-08
0.0361938
5.09025e-07
0.0361938
-7.99493e-08
-5.09015e-07
0.037096
3.44159e-08
0.0370961
4.90934e-07
0.037096
-3.44068e-08
-4.90936e-07
0.0380102
-6.08562e-08
0.0380103
4.35752e-07
0.0380102
6.08759e-08
-4.35765e-07
0.0389352
-1.18705e-07
0.0389353
3.56987e-07
0.0389352
1.18733e-07
-3.57009e-07
0.0398698
-1.56632e-07
0.0398698
2.84935e-07
0.0398698
1.56668e-07
-2.84966e-07
0.0408126
-1.88285e-07
0.0408127
2.28078e-07
0.0408126
1.88329e-07
-2.28117e-07
0.0417621
-2.18142e-07
0.0417621
1.83378e-07
0.0417621
2.18192e-07
-1.83422e-07
0.0427165
-2.44815e-07
0.0427166
1.4652e-07
0.0427166
2.44869e-07
-1.46569e-07
0.043674
-2.65397e-07
0.0436741
1.15901e-07
0.0436741
2.65453e-07
-1.15952e-07
0.0446325
-2.77592e-07
0.0446326
9.24423e-08
0.0446326
2.77647e-07
-9.24945e-08
0.0455899
-2.79721e-07
0.0455899
7.81599e-08
0.0455899
2.79776e-07
-7.82114e-08
0.0465437
-2.69926e-07
0.0465437
7.35221e-08
0.0465437
2.69978e-07
-7.35713e-08
0.0474916
-2.49225e-07
0.0474916
6.42029e-08
0.0474916
2.49273e-07
-6.42489e-08
0.0484311
-2.23813e-07
0.0484311
4.57034e-08
0.0484312
2.23857e-07
-4.57456e-08
0.0493596
-1.96826e-07
0.0493596
2.86407e-08
0.0493597
1.96865e-07
-2.86786e-08
0.0502744
-1.67449e-07
0.0502744
1.58996e-08
0.0502744
1.67483e-07
-1.59323e-08
0.0511726
-1.35932e-07
0.0511726
7.41097e-09
0.0511727
1.35959e-07
-7.43764e-09
0.0520514
-1.02676e-07
0.0520514
2.1993e-09
0.0520514
1.02697e-07
-2.21926e-09
0.0529077
-6.81244e-08
0.0529077
-7.93327e-10
0.0529077
6.81373e-08
7.80611e-10
0.0537383
-3.26817e-08
0.0537383
-2.46143e-09
0.0537383
3.26867e-08
2.45644e-09
0.0545399
0.0545399
0.0545399
)
;

boundaryField
{
    inlet
    {
        type            cyclic;
        value           nonuniform List<scalar> 
100
(
-0.0545399
-0.0537383
-0.0529077
-0.0520514
-0.0511727
-0.0502744
-0.0493596
-0.0484312
-0.0474916
-0.0465437
-0.0455899
-0.0446325
-0.043674
-0.0427165
-0.0417621
-0.0408126
-0.0398697
-0.0389351
-0.0380101
-0.037096
-0.0361938
-0.0353042
-0.0344279
-0.0335655
-0.0327175
-0.031884
-0.0310652
-0.0302613
-0.0294723
-0.0286982
-0.027939
-0.0271945
-0.0264646
-0.0257492
-0.0250481
-0.0243611
-0.0236879
-0.0230284
-0.0223823
-0.0217493
-0.0211293
-0.020522
-0.0199271
-0.0193444
-0.0187737
-0.0182146
-0.0176668
-0.0171302
-0.0166045
-0.0160894
-0.0155846
-0.01509
-0.0146051
-0.0141299
-0.013664
-0.0132072
-0.0127592
-0.0123197
-0.0118886
-0.0114655
-0.0110502
-0.0106424
-0.0102415
-0.00984723
-0.00945953
-0.00907845
-0.00870399
-0.00833611
-0.00797475
-0.00761987
-0.00727141
-0.00692923
-0.00659311
-0.00626296
-0.00593885
-0.00562087
-0.00530914
-0.00500382
-0.00470511
-0.00441318
-0.00412823
-0.00385042
-0.00357991
-0.00331679
-0.00306113
-0.00281295
-0.00257224
-0.00233895
-0.00211301
-0.00189431
-0.00168273
-0.00147815
-0.00128042
-0.00108938
-0.000904897
-0.000726803
-0.000554946
-0.00038917
-0.000229324
-7.52571e-05
)
;
    }
    outlet
    {
        type            cyclic;
        value           nonuniform List<scalar> 
100
(
0.0545399
0.0537383
0.0529077
0.0520514
0.0511727
0.0502744
0.0493596
0.0484312
0.0474916
0.0465437
0.0455899
0.0446325
0.043674
0.0427165
0.0417621
0.0408126
0.0398697
0.0389351
0.0380101
0.037096
0.0361938
0.0353042
0.0344279
0.0335655
0.0327175
0.031884
0.0310652
0.0302613
0.0294723
0.0286982
0.027939
0.0271945
0.0264646
0.0257492
0.0250481
0.0243611
0.0236879
0.0230284
0.0223823
0.0217493
0.0211293
0.020522
0.0199271
0.0193444
0.0187737
0.0182146
0.0176668
0.0171302
0.0166045
0.0160894
0.0155846
0.01509
0.0146051
0.0141299
0.013664
0.0132072
0.0127592
0.0123197
0.0118886
0.0114655
0.0110502
0.0106424
0.0102415
0.00984723
0.00945953
0.00907845
0.00870399
0.00833611
0.00797475
0.00761987
0.00727141
0.00692923
0.00659311
0.00626296
0.00593885
0.00562087
0.00530914
0.00500382
0.00470511
0.00441318
0.00412823
0.00385042
0.00357991
0.00331679
0.00306113
0.00281295
0.00257224
0.00233895
0.00211301
0.00189431
0.00168273
0.00147815
0.00128042
0.00108938
0.000904897
0.000726803
0.000554946
0.00038917
0.000229324
7.52571e-05
)
;
    }
    fixedWalls-bottom
    {
        type            calculated;
        value           uniform 0;
    }
    fixedWalls-top
    {
        type            symmetry;
        value           uniform 0;
    }
    frontAndBack
    {
        type            empty;
        value           nonuniform List<scalar> 0();
    }
}


// ************************************************************************* //
