/*--------------------------------*- C++ -*----------------------------------*\
  =========                 |
  \\      /  F ield         | OpenFOAM: The Open Source CFD Toolbox
   \\    /   O peration     | Website:  https://openfoam.org
    \\  /    A nd           | Version:  10
     \\/     M anipulation  |
\*---------------------------------------------------------------------------*/
FoamFile
{
    format      ascii;
    class       volVectorField;
    location    "2034";
    object      U;
}
// * * * * * * * * * * * * * * * * * * * * * * * * * * * * * * * * * * * * * //

dimensions      [0 1 -1 0 0 0 0];

internalField   nonuniform List<vector> 
400
(
(0.00815592 -7.73698e-10 0)
(0.00815653 -2.07892e-10 0)
(0.0081562 7.91827e-10 0)
(0.00815562 2.07929e-10 0)
(0.0245071 -9.07787e-09 0)
(0.0245089 -2.78031e-09 0)
(0.024508 9.11264e-09 0)
(0.0245063 2.78043e-09 0)
(0.041011 -2.50129e-08 0)
(0.0410138 -7.92147e-09 0)
(0.0410123 2.50481e-08 0)
(0.0410097 7.92169e-09 0)
(0.0576672 -4.83649e-08 0)
(0.057671 -1.57039e-08 0)
(0.0576691 4.83977e-08 0)
(0.0576656 1.57043e-08 0)
(0.0744755 -7.83665e-08 0)
(0.0744802 -2.60039e-08 0)
(0.0744779 7.83985e-08 0)
(0.0744736 2.60044e-08 0)
(0.0914354 -1.14381e-07 0)
(0.0914409 -3.87039e-08 0)
(0.0914381 1.14413e-07 0)
(0.0914331 3.87045e-08 0)
(0.108546 -1.55828e-07 0)
(0.108552 -5.36629e-08 0)
(0.108549 1.5586e-07 0)
(0.108544 5.36636e-08 0)
(0.125806 -2.02119e-07 0)
(0.125813 -7.06863e-08 0)
(0.12581 2.02151e-07 0)
(0.125804 7.06872e-08 0)
(0.143215 -2.52649e-07 0)
(0.143222 -8.95155e-08 0)
(0.143219 2.5268e-07 0)
(0.143212 8.95165e-08 0)
(0.160769 -3.06806e-07 0)
(0.160777 -1.09823e-07 0)
(0.160773 3.06837e-07 0)
(0.160767 1.09824e-07 0)
(0.178467 -3.6398e-07 0)
(0.178475 -1.31208e-07 0)
(0.178471 3.64011e-07 0)
(0.178464 1.31209e-07 0)
(0.196303 -4.23559e-07 0)
(0.196311 -1.53195e-07 0)
(0.196307 4.23589e-07 0)
(0.1963 1.53196e-07 0)
(0.214271 -4.84934e-07 0)
(0.21428 -1.75235e-07 0)
(0.214275 4.84964e-07 0)
(0.214268 1.75237e-07 0)
(0.232366 -5.47493e-07 0)
(0.232374 -1.96718e-07 0)
(0.23237 5.47522e-07 0)
(0.232363 1.9672e-07 0)
(0.250577 -6.10616e-07 0)
(0.250585 -2.16996e-07 0)
(0.25058 6.10644e-07 0)
(0.250574 2.16998e-07 0)
(0.268893 -6.73673e-07 0)
(0.268901 -2.35429e-07 0)
(0.268896 6.73701e-07 0)
(0.26889 2.35432e-07 0)
(0.287299 -7.36035e-07 0)
(0.287306 -2.51462e-07 0)
(0.287301 7.36062e-07 0)
(0.287296 2.51465e-07 0)
(0.305778 -7.97026e-07 0)
(0.305785 -2.64663e-07 0)
(0.30578 7.97052e-07 0)
(0.305775 2.64666e-07 0)
(0.324311 -8.56002e-07 0)
(0.324318 -2.74813e-07 0)
(0.324312 8.56028e-07 0)
(0.324308 2.74816e-07 0)
(0.342874 -9.12378e-07 0)
(0.342881 -2.8192e-07 0)
(0.342875 9.12403e-07 0)
(0.342872 2.81924e-07 0)
(0.361444 -9.65759e-07 0)
(0.36145 -2.86277e-07 0)
(0.361445 9.65783e-07 0)
(0.361442 2.86281e-07 0)
(0.379994 -1.0161e-06 0)
(0.38 -2.88421e-07 0)
(0.379995 1.01612e-06 0)
(0.379993 2.88425e-07 0)
(0.3985 -1.06381e-06 0)
(0.398506 -2.89034e-07 0)
(0.3985 1.06383e-06 0)
(0.398498 2.89039e-07 0)
(0.416935 -1.10996e-06 0)
(0.416941 -2.8878e-07 0)
(0.416935 1.10998e-06 0)
(0.416934 2.88786e-07 0)
(0.435278 -1.15635e-06 0)
(0.435284 -2.88113e-07 0)
(0.435278 1.15637e-06 0)
(0.435277 2.88118e-07 0)
(0.453508 -1.20572e-06 0)
(0.453514 -2.87091e-07 0)
(0.453508 1.20574e-06 0)
(0.453506 2.87097e-07 0)
(0.471608 -1.26228e-06 0)
(0.471614 -2.8509e-07 0)
(0.471607 1.2623e-06 0)
(0.471605 2.85096e-07 0)
(0.489565 -1.33271e-06 0)
(0.489572 -2.80383e-07 0)
(0.489564 1.33273e-06 0)
(0.48956 2.80389e-07 0)
(0.50737 -1.42479e-06 0)
(0.507377 -2.70015e-07 0)
(0.507368 1.42481e-06 0)
(0.507362 2.70022e-07 0)
(0.525023 -1.52518e-06 0)
(0.525029 -2.53607e-07 0)
(0.525019 1.5252e-06 0)
(0.525013 2.53615e-07 0)
(0.542532 -1.63365e-06 0)
(0.542537 -2.26986e-07 0)
(0.542527 1.63367e-06 0)
(0.542523 2.26993e-07 0)
(0.559903 -1.73128e-06 0)
(0.559907 -1.88991e-07 0)
(0.559897 1.7313e-06 0)
(0.559895 1.88999e-07 0)
(0.577135 -1.81588e-06 0)
(0.577138 -1.35419e-07 0)
(0.577127 1.81589e-06 0)
(0.577127 1.35427e-07 0)
(0.594225 -1.88494e-06 0)
(0.594226 -6.21966e-08 0)
(0.594214 1.88495e-06 0)
(0.594218 6.22047e-08 0)
(0.611171 -1.93286e-06 0)
(0.611169 3.39005e-08 0)
(0.611156 1.93288e-06 0)
(0.611165 -3.38928e-08 0)
(0.627968 -1.95023e-06 0)
(0.627964 1.54509e-07 0)
(0.627951 1.95025e-06 0)
(0.627965 -1.545e-07 0)
(0.644613 -1.92011e-06 0)
(0.644606 2.97562e-07 0)
(0.644594 1.92012e-06 0)
(0.644615 -2.97546e-07 0)
(0.661099 -1.81199e-06 0)
(0.66109 4.53763e-07 0)
(0.661078 1.81202e-06 0)
(0.661109 -4.53733e-07 0)
(0.677418 -1.59574e-06 0)
(0.677408 6.07993e-07 0)
(0.677399 1.59574e-06 0)
(0.67744 -6.08013e-07 0)
(0.693593 -1.35334e-06 0)
(0.693584 7.72695e-07 0)
(0.693574 1.35334e-06 0)
(0.693619 -7.72709e-07 0)
(0.709653 -1.08692e-06 0)
(0.709647 9.26248e-07 0)
(0.709634 1.08695e-06 0)
(0.709674 -9.26217e-07 0)
(0.725609 -8.90231e-07 0)
(0.725606 1.07558e-06 0)
(0.725592 8.90244e-07 0)
(0.725626 -1.07556e-06 0)
(0.741469 -7.47052e-07 0)
(0.741468 1.20125e-06 0)
(0.741456 7.47054e-07 0)
(0.741483 -1.20124e-06 0)
(0.757242 -6.35404e-07 0)
(0.757241 1.29992e-06 0)
(0.757233 6.35407e-07 0)
(0.757252 -1.29991e-06 0)
(0.772935 -5.4918e-07 0)
(0.772933 1.36306e-06 0)
(0.772929 5.49187e-07 0)
(0.772941 -1.36304e-06 0)
(0.788551 -4.93772e-07 0)
(0.788552 1.38584e-06 0)
(0.788551 4.93772e-07 0)
(0.788557 -1.38583e-06 0)
(0.804098 -4.78669e-07 0)
(0.804105 1.37571e-06 0)
(0.804102 4.78666e-07 0)
(0.804105 -1.37568e-06 0)
(0.819584 -4.81365e-07 0)
(0.819594 1.32692e-06 0)
(0.81959 4.81365e-07 0)
(0.819592 -1.3269e-06 0)
(0.835015 -4.95238e-07 0)
(0.835024 1.26163e-06 0)
(0.835022 4.95233e-07 0)
(0.835024 -1.26161e-06 0)
(0.850395 -4.84635e-07 0)
(0.850403 1.19091e-06 0)
(0.850402 4.84627e-07 0)
(0.850406 -1.19088e-06 0)
(0.865729 -4.4576e-07 0)
(0.865735 1.12003e-06 0)
(0.865737 4.45749e-07 0)
(0.865741 -1.12e-06 0)
(0.881023 -3.82286e-07 0)
(0.881026 1.05388e-06 0)
(0.881029 3.82272e-07 0)
(0.881034 -1.05385e-06 0)
(0.896279 -2.98941e-07 0)
(0.896281 9.95753e-07 0)
(0.896284 2.98924e-07 0)
(0.896291 -9.95719e-07 0)
(0.911501 -1.99728e-07 0)
(0.911502 9.459e-07 0)
(0.911506 1.99708e-07 0)
(0.911513 -9.45863e-07 0)
(0.926693 -8.76489e-08 0)
(0.926693 9.01162e-07 0)
(0.926697 8.76252e-08 0)
(0.926705 -9.01122e-07 0)
(0.941857 3.52228e-08 0)
(0.941857 8.55312e-07 0)
(0.941862 -3.52503e-08 0)
(0.94187 -8.55269e-07 0)
(0.956996 1.66785e-07 0)
(0.956998 8.00461e-07 0)
(0.957002 -1.66817e-07 0)
(0.957011 -8.00414e-07 0)
(0.972114 3.0391e-07 0)
(0.972116 7.30548e-07 0)
(0.972121 -3.03949e-07 0)
(0.97213 -7.30498e-07 0)
(0.987212 4.41584e-07 0)
(0.987215 6.47891e-07 0)
(0.98722 -4.4163e-07 0)
(0.987228 -6.47836e-07 0)
(1.00229 5.74057e-07 0)
(1.0023 5.67299e-07 0)
(1.0023 -5.74102e-07 0)
(1.00231 -5.67236e-07 0)
(1.01736 6.92359e-07 0)
(1.01736 5.0007e-07 0)
(1.01737 -6.92404e-07 0)
(1.01737 -5.00003e-07 0)
(1.03241 7.91176e-07 0)
(1.03241 4.57331e-07 0)
(1.03241 -7.91227e-07 0)
(1.03242 -4.57261e-07 0)
(1.04744 8.66158e-07 0)
(1.04744 4.3474e-07 0)
(1.04745 -8.66214e-07 0)
(1.04745 -4.34665e-07 0)
(1.06246 9.16397e-07 0)
(1.06246 4.2331e-07 0)
(1.06246 -9.16459e-07 0)
(1.06246 -4.23232e-07 0)
(1.07746 9.43365e-07 0)
(1.07746 4.15312e-07 0)
(1.07746 -9.43432e-07 0)
(1.07746 -4.15231e-07 0)
(1.09245 9.49249e-07 0)
(1.09244 4.05899e-07 0)
(1.09245 -9.49319e-07 0)
(1.09244 -4.05814e-07 0)
(1.10741 9.35612e-07 0)
(1.10741 3.93393e-07 0)
(1.10741 -9.35685e-07 0)
(1.10741 -3.93307e-07 0)
(1.12235 9.02684e-07 0)
(1.12235 3.79456e-07 0)
(1.12235 -9.02756e-07 0)
(1.12235 -3.79368e-07 0)
(1.13727 8.49502e-07 0)
(1.13727 3.69514e-07 0)
(1.13727 -8.49572e-07 0)
(1.13726 -3.69425e-07 0)
(1.15216 7.75148e-07 0)
(1.15215 3.72988e-07 0)
(1.15215 -7.75213e-07 0)
(1.15215 -3.72898e-07 0)
(1.16701 6.82166e-07 0)
(1.16701 4.02472e-07 0)
(1.16701 -6.82229e-07 0)
(1.167 -4.02385e-07 0)
(1.18182 5.82674e-07 0)
(1.18182 4.68966e-07 0)
(1.18182 -5.82741e-07 0)
(1.18181 -4.68883e-07 0)
(1.19659 5.03514e-07 0)
(1.19658 5.69787e-07 0)
(1.19658 -5.03584e-07 0)
(1.19657 -5.6972e-07 0)
(1.2113 4.72039e-07 0)
(1.21128 6.76164e-07 0)
(1.21129 -4.72103e-07 0)
(1.21128 -6.76116e-07 0)
(1.22593 4.767e-07 0)
(1.22592 7.51673e-07 0)
(1.22593 -4.76743e-07 0)
(1.22592 -7.51591e-07 0)
(1.24048 3.95112e-07 0)
(1.24049 7.54081e-07 0)
(1.24049 -3.95223e-07 0)
(1.24048 -7.53983e-07 0)
(1.25494 3.1669e-07 0)
(1.25495 6.6955e-07 0)
(1.25495 -3.16701e-07 0)
(1.25494 -6.69538e-07 0)
(1.26928 1.62354e-07 0)
(1.26929 5.75275e-07 0)
(1.26929 -1.62373e-07 0)
(1.26928 -5.75255e-07 0)
(1.28349 8.69002e-08 0)
(1.28349 5.16486e-07 0)
(1.28349 -8.69086e-08 0)
(1.28349 -5.16466e-07 0)
(1.29753 7.70495e-08 0)
(1.29753 5.0613e-07 0)
(1.29753 -7.70375e-08 0)
(1.29753 -5.06111e-07 0)
(1.31138 2.73969e-08 0)
(1.31139 5.08804e-07 0)
(1.31138 -2.74247e-08 0)
(1.31139 -5.08779e-07 0)
(1.32501 -1.18024e-09 0)
(1.32503 4.64678e-07 0)
(1.32502 1.20132e-09 0)
(1.32502 -4.64697e-07 0)
(1.33839 -8.94114e-08 0)
(1.33839 3.96327e-07 0)
(1.33839 8.94351e-08 0)
(1.33839 -3.96353e-07 0)
(1.35146 -1.40831e-07 0)
(1.35146 3.19701e-07 0)
(1.35146 1.40866e-07 0)
(1.35146 -3.19732e-07 0)
(1.36418 -1.73578e-07 0)
(1.36418 2.5424e-07 0)
(1.36419 1.73622e-07 0)
(1.36418 -2.54275e-07 0)
(1.37651 -2.03148e-07 0)
(1.37651 2.03128e-07 0)
(1.37651 2.03197e-07 0)
(1.3765 -2.03169e-07 0)
(1.38839 -2.316e-07 0)
(1.38839 1.62282e-07 0)
(1.38839 2.31654e-07 0)
(1.38839 -1.62329e-07 0)
(1.39977 -2.55589e-07 0)
(1.39977 1.28312e-07 0)
(1.39977 2.55645e-07 0)
(1.39977 -1.28363e-07 0)
(1.4106 -2.71959e-07 0)
(1.4106 1.01027e-07 0)
(1.4106 2.72017e-07 0)
(1.4106 -1.0108e-07 0)
(1.42082 -2.78956e-07 0)
(1.42082 8.28703e-08 0)
(1.42082 2.79012e-07 0)
(1.42082 -8.29235e-08 0)
(1.43038 -2.75727e-07 0)
(1.43037 7.50913e-08 0)
(1.43038 2.75781e-07 0)
(1.43037 -7.51416e-08 0)
(1.43921 -2.62209e-07 0)
(1.43921 6.42124e-08 0)
(1.43921 2.6226e-07 0)
(1.43921 -6.42624e-08 0)
(1.44728 -2.39285e-07 0)
(1.44727 5.53625e-08 0)
(1.44728 2.39331e-07 0)
(1.44728 -5.54064e-08 0)
(1.45451 -2.10126e-07 0)
(1.45451 3.74768e-08 0)
(1.45451 2.10167e-07 0)
(1.45451 -3.75171e-08 0)
(1.46087 -1.81273e-07 0)
(1.46087 2.14113e-08 0)
(1.46087 1.8131e-07 0)
(1.46087 -2.14465e-08 0)
(1.46629 -1.51069e-07 0)
(1.46629 1.0505e-08 0)
(1.46629 1.511e-07 0)
(1.46629 -1.05345e-08 0)
(1.47073 -1.18889e-07 0)
(1.47073 3.82661e-09 0)
(1.47073 1.18913e-07 0)
(1.47073 -3.84972e-09 0)
(1.47414 -8.49193e-08 0)
(1.47414 2.89858e-11 0)
(1.47414 8.49359e-08 0)
(1.47414 -4.51021e-11 0)
(1.47646 -5.00145e-08 0)
(1.47646 -1.28663e-09 0)
(1.47646 5.00235e-08 0)
(1.47646 1.2779e-09 0)
(1.47765 -1.62911e-08 0)
(1.47765 -6.28067e-10 0)
(1.47765 1.62937e-08 0)
(1.47765 6.25581e-10 0)
)
;

boundaryField
{
    inlet
    {
        type            cyclic;
    }
    outlet
    {
        type            cyclic;
    }
    fixedWalls-bottom
    {
        type            noSlip;
    }
    fixedWalls-top
    {
        type            symmetry;
    }
    frontAndBack
    {
        type            empty;
    }
}


// ************************************************************************* //
