/*--------------------------------*- C++ -*----------------------------------*\
  =========                 |
  \\      /  F ield         | OpenFOAM: The Open Source CFD Toolbox
   \\    /   O peration     | Website:  https://openfoam.org
    \\  /    A nd           | Version:  10
     \\/     M anipulation  |
\*---------------------------------------------------------------------------*/
FoamFile
{
    format      ascii;
    class       volScalarField;
    location    "172";
    object      k;
}
// * * * * * * * * * * * * * * * * * * * * * * * * * * * * * * * * * * * * * //

dimensions      [0 2 -2 0 0 0 0];

internalField   nonuniform List<scalar> 
200
(
2.1727e-15
2.16203e-15
2.16517e-15
2.1691e-15
6.49785e-14
6.46586e-14
6.47519e-14
6.48708e-14
4.65409e-13
4.6311e-13
4.63777e-13
4.64638e-13
1.71539e-12
1.70687e-12
1.70933e-12
1.71256e-12
4.49392e-12
4.47144e-12
4.47795e-12
4.48662e-12
9.61287e-12
9.56422e-12
9.57849e-12
9.59769e-12
1.79928e-11
1.79003e-11
1.7928e-11
1.79658e-11
3.0636e-11
3.04749e-11
3.0525e-11
3.05934e-11
4.85914e-11
4.8328e-11
4.84143e-11
4.85313e-11
7.29098e-11
7.24989e-11
7.26427e-11
7.28343e-11
1.04588e-10
1.03968e-10
1.04203e-10
1.04506e-10
1.44505e-10
1.43592e-10
1.43969e-10
1.44434e-10
1.93344e-10
1.92023e-10
1.92623e-10
1.93315e-10
2.51528e-10
2.49639e-10
2.50583e-10
2.51583e-10
3.19073e-10
3.16471e-10
3.17944e-10
3.19265e-10
3.95667e-10
3.92169e-10
3.94431e-10
3.96054e-10
4.80594e-10
4.75972e-10
4.79393e-10
4.81223e-10
5.72746e-10
5.66725e-10
5.71835e-10
5.73631e-10
6.70682e-10
6.6293e-10
6.70397e-10
6.71759e-10
7.72722e-10
7.62815e-10
7.73075e-10
7.7377e-10
8.77099e-10
8.64419e-10
8.77658e-10
8.776e-10
9.8219e-10
9.65701e-10
9.81881e-10
9.81078e-10
1.08583e-09
1.0646e-09
1.08364e-09
1.08207e-09
1.18413e-09
1.15938e-09
1.18145e-09
1.1785e-09
1.27445e-09
1.24844e-09
1.27355e-09
1.26832e-09
1.35795e-09
1.33e-09
1.35753e-09
1.35075e-09
1.43331e-09
1.40321e-09
1.43174e-09
1.42473e-09
1.49303e-09
1.46861e-09
1.4953e-09
1.48867e-09
1.54706e-09
1.52418e-09
1.54411e-09
1.54343e-09
1.59284e-09
1.56994e-09
1.58765e-09
1.58812e-09
1.63041e-09
1.60616e-09
1.62314e-09
1.6233e-09
1.65875e-09
1.63321e-09
1.64878e-09
1.64876e-09
1.67487e-09
1.65137e-09
1.66391e-09
1.66366e-09
1.67779e-09
1.66118e-09
1.66782e-09
1.66742e-09
1.66798e-09
1.66394e-09
1.65912e-09
1.66043e-09
1.64941e-09
1.66471e-09
1.63552e-09
1.64457e-09
1.62346e-09
1.6311e-09
1.60094e-09
1.62554e-09
1.59e-09
1.57378e-09
1.55154e-09
1.58576e-09
1.512e-09
1.51273e-09
1.48441e-09
1.5198e-09
1.43274e-09
1.445e-09
1.39973e-09
1.42562e-09
1.35167e-09
1.32891e-09
1.30232e-09
1.32391e-09
1.22953e-09
1.20508e-09
1.18862e-09
1.21305e-09
1.08043e-09
1.07825e-09
1.06678e-09
1.07798e-09
9.45424e-10
9.55467e-10
9.44156e-10
9.54614e-10
8.20108e-10
8.48636e-10
8.25497e-10
8.45467e-10
7.09417e-10
7.32894e-10
7.16731e-10
7.25911e-10
6.1604e-10
6.30445e-10
6.28921e-10
6.20757e-10
5.47079e-10
5.46173e-10
5.4273e-10
5.4298e-10
4.86087e-10
4.96626e-10
4.84892e-10
4.96108e-10
4.54326e-10
4.68045e-10
4.54103e-10
4.67907e-10
)
;

boundaryField
{
    inlet
    {
        type            cyclic;
    }
    outlet
    {
        type            cyclic;
    }
    fixedWalls-bottom
    {
        type            kqRWallFunction;
        value           nonuniform List<scalar> 4(2.1727e-15 2.16203e-15 2.16517e-15 2.1691e-15);
    }
    fixedWalls-top
    {
        type            symmetry;
    }
    frontAndBack
    {
        type            empty;
    }
}


// ************************************************************************* //
