/*--------------------------------*- C++ -*----------------------------------*\
  =========                 |
  \\      /  F ield         | OpenFOAM: The Open Source CFD Toolbox
   \\    /   O peration     | Website:  https://openfoam.org
    \\  /    A nd           | Version:  10
     \\/     M anipulation  |
\*---------------------------------------------------------------------------*/
FoamFile
{
    format      ascii;
    class       volScalarField;
    location    "172";
    object      nut;
}
// * * * * * * * * * * * * * * * * * * * * * * * * * * * * * * * * * * * * * //

dimensions      [0 2 -1 0 0 0 0];

internalField   nonuniform List<scalar> 
200
(
1.46374e-19
1.45655e-19
1.45866e-19
1.46131e-19
2.5815e-17
2.5688e-17
2.57251e-17
2.57723e-17
5.57221e-16
5.5447e-16
5.55268e-16
5.56299e-16
4.43716e-15
4.41512e-15
4.4215e-15
4.42985e-15
2.08577e-14
2.07532e-14
2.07835e-14
2.08238e-14
7.13411e-14
7.09795e-14
7.10858e-14
7.12291e-14
1.97512e-13
1.96498e-13
1.96806e-13
1.97223e-13
4.70095e-13
4.67647e-13
4.68442e-13
4.69496e-13
9.97772e-13
9.92514e-13
9.94412e-13
9.96812e-13
1.93342e-12
1.92316e-12
1.92748e-12
1.93252e-12
3.47428e-12
3.4558e-12
3.46531e-12
3.47518e-12
5.85254e-12
5.82145e-12
5.84169e-12
5.85998e-12
9.31487e-12
9.26516e-12
9.30666e-12
9.33891e-12
1.40929e-11
1.40159e-11
1.40973e-11
1.41519e-11
2.03663e-11
2.0253e-11
2.04048e-11
2.04894e-11
2.82425e-11
2.80781e-11
2.83463e-11
2.84717e-11
3.77394e-11
3.74979e-11
3.79463e-11
3.81226e-11
4.87851e-11
4.84227e-11
4.9131e-11
4.93713e-11
6.12292e-11
6.06894e-11
6.17431e-11
6.20563e-11
7.48631e-11
7.40842e-11
7.55206e-11
7.59421e-11
8.94465e-11
8.8341e-11
9.01589e-11
9.07394e-11
1.04741e-10
1.03177e-10
1.05339e-10
1.0613e-10
1.20444e-10
1.18294e-10
1.20772e-10
1.21793e-10
1.36033e-10
1.33449e-10
1.36257e-10
1.37421e-10
1.51074e-10
1.48458e-10
1.51577e-10
1.52731e-10
1.65893e-10
1.63003e-10
1.6644e-10
1.67624e-10
1.80249e-10
1.77064e-10
1.80654e-10
1.82e-10
1.93258e-10
1.90764e-10
1.94179e-10
1.95726e-10
2.06333e-10
2.03895e-10
2.06592e-10
2.09012e-10
2.19511e-10
2.16452e-10
2.19374e-10
2.21851e-10
2.3234e-10
2.28643e-10
2.32628e-10
2.34415e-10
2.45256e-10
2.41203e-10
2.45242e-10
2.47156e-10
2.57987e-10
2.54176e-10
2.57702e-10
2.60006e-10
2.70404e-10
2.68594e-10
2.70407e-10
2.72792e-10
2.82866e-10
2.82777e-10
2.83215e-10
2.85951e-10
2.95897e-10
2.97649e-10
2.95817e-10
2.99704e-10
3.09117e-10
3.09667e-10
3.0772e-10
3.1487e-10
3.2232e-10
3.18235e-10
3.17285e-10
3.2772e-10
3.26659e-10
3.26346e-10
3.22392e-10
3.35907e-10
3.28987e-10
3.32554e-10
3.22638e-10
3.36609e-10
3.26679e-10
3.2683e-10
3.17797e-10
3.32212e-10
3.12263e-10
3.12178e-10
3.04842e-10
3.20994e-10
2.85452e-10
2.91277e-10
2.84771e-10
2.97698e-10
2.57168e-10
2.66376e-10
2.59336e-10
2.72034e-10
2.27801e-10
2.4199e-10
2.3174e-10
2.45991e-10
2.00612e-10
2.12319e-10
2.0746e-10
2.13696e-10
1.78822e-10
1.8501e-10
1.85144e-10
1.8523e-10
1.61373e-10
1.62554e-10
1.62195e-10
1.64553e-10
1.4604e-10
1.50343e-10
1.47617e-10
1.53631e-10
1.39162e-10
1.45885e-10
1.4228e-10
1.49316e-10
)
;

boundaryField
{
    inlet
    {
        type            cyclic;
    }
    outlet
    {
        type            cyclic;
    }
    fixedWalls-bottom
    {
        type            nutkWallFunction;
        Cmu             0.09;
        kappa           0.41;
        E               9.8;
        value           uniform 0;
    }
    fixedWalls-top
    {
        type            symmetry;
    }
    frontAndBack
    {
        type            empty;
    }
}


// ************************************************************************* //
