/*--------------------------------*- C++ -*----------------------------------*\
  =========                 |
  \\      /  F ield         | OpenFOAM: The Open Source CFD Toolbox
   \\    /   O peration     | Website:  https://openfoam.org
    \\  /    A nd           | Version:  10
     \\/     M anipulation  |
\*---------------------------------------------------------------------------*/
FoamFile
{
    format      ascii;
    class       volScalarField;
    location    "172";
    object      omega;
}
// * * * * * * * * * * * * * * * * * * * * * * * * * * * * * * * * * * * * * //

dimensions      [0 0 -1 0 0 0 0];

internalField   nonuniform List<scalar> 
200
(
14843.5
14843.5
14843.5
14843.5
2517.08
2517.07
2517.07
2517.07
835.233
835.231
835.231
835.23
386.596
386.597
386.596
386.595
215.456
215.458
215.458
215.456
134.745
134.746
134.745
134.744
91.0972
91.0967
91.0949
91.0937
65.1698
65.1664
65.1629
65.1623
48.6999
48.6926
48.6864
48.6865
37.7102
37.6978
37.6879
37.6889
30.1036
30.0852
30.0704
30.0721
24.6909
24.666
24.6451
24.6475
20.7565
20.7253
20.6973
20.6999
17.8479
17.8111
17.7753
17.7774
15.6667
15.6259
15.5818
15.582
14.0096
13.9671
13.9147
13.9104
12.7345
12.6933
12.6335
12.623
11.7402
11.7037
11.639
11.6187
10.9536
10.9233
10.8579
10.825
10.3218
10.2966
10.2366
10.1889
9.80585
9.78503
9.73458
9.67164
9.37731
9.35968
9.32113
9.24412
9.01526
8.99959
8.97266
8.8845
8.70471
8.68778
8.67071
8.57586
8.43593
8.4094
8.402
8.30427
8.18571
8.15938
8.15629
8.05826
7.95181
7.92483
7.92528
7.82821
7.72559
7.69855
7.70062
7.60589
7.49787
7.47532
7.47423
7.3844
7.25633
7.25307
7.23717
7.15848
7.01733
7.02476
6.97741
6.9249
6.76331
6.77111
6.7231
6.67094
6.4921
6.49698
6.45671
6.39855
6.20476
6.18472
6.16781
6.11244
5.89671
5.88428
5.85818
5.80668
5.57427
5.59286
5.52882
5.4873
5.25191
5.26727
5.20257
5.16257
4.93297
4.94533
4.89004
4.83876
4.62869
4.63534
4.60436
4.52448
4.355
4.34514
4.33838
4.23524
4.1376
4.06605
4.09797
3.98514
3.93747
3.86021
3.89913
3.77903
3.78497
3.70179
3.74611
3.62105
3.67628
3.58692
3.64067
3.50918
3.6001
3.50691
3.56216
3.43699
3.53626
3.45186
3.45479
3.39693
3.445
3.40763
3.39692
3.35128
3.39015
3.35994
3.34615
3.29972
3.32846
3.30327
3.2848
3.22921
3.26473
3.20832
3.19161
3.13367
)
;

boundaryField
{
    inlet
    {
        type            cyclic;
    }
    outlet
    {
        type            cyclic;
    }
    fixedWalls-bottom
    {
        beta1           0.075;
        blended         0;
        type            omegaWallFunction;
        value           nonuniform List<scalar> 4(14843.5 14843.5 14843.5 14843.5);
    }
    fixedWalls-top
    {
        type            symmetry;
    }
    frontAndBack
    {
        type            empty;
    }
}


// ************************************************************************* //
