/*--------------------------------*- C++ -*----------------------------------*\
  =========                 |
  \\      /  F ield         | OpenFOAM: The Open Source CFD Toolbox
   \\    /   O peration     | Website:  https://openfoam.org
    \\  /    A nd           | Version:  10
     \\/     M anipulation  |
\*---------------------------------------------------------------------------*/
FoamFile
{
    format      ascii;
    class       volScalarField;
    location    "172";
    object      p;
}
// * * * * * * * * * * * * * * * * * * * * * * * * * * * * * * * * * * * * * //

dimensions      [0 2 -2 0 0 0 0];

internalField   nonuniform List<scalar> 
200
(
-1.25331e-10
6.21376e-07
5.11239e-08
-5.705e-07
-8.22342e-11
6.20413e-07
5.09811e-08
-5.69539e-07
1.00233e-10
6.19431e-07
5.07709e-08
-5.68547e-07
2.029e-10
6.18734e-07
5.06131e-08
-5.67856e-07
3.8872e-10
6.18258e-07
5.04103e-08
-5.6737e-07
5.57129e-10
6.18047e-07
5.02323e-08
-5.67157e-07
8.38913e-10
6.18018e-07
4.9954e-08
-5.67114e-07
1.13549e-09
6.18269e-07
4.96651e-08
-5.6736e-07
1.57241e-09
6.18704e-07
4.92312e-08
-5.67784e-07
2.06971e-09
6.1942e-07
4.87411e-08
-5.6849e-07
2.75287e-09
6.20291e-07
4.80532e-08
-5.69349e-07
3.557e-09
6.214e-07
4.72504e-08
-5.70444e-07
4.60298e-09
6.22595e-07
4.61927e-08
-5.71626e-07
5.84253e-09
6.23921e-07
4.49483e-08
-5.72934e-07
7.38378e-09
6.25201e-07
4.33903e-08
-5.74199e-07
9.18943e-09
6.26432e-07
4.15747e-08
-5.75409e-07
1.13542e-08
6.27404e-07
3.93896e-08
-5.76365e-07
1.38626e-08
6.28043e-07
3.68668e-08
-5.76981e-07
1.67871e-08
6.28107e-07
3.39196e-08
-5.77028e-07
2.01309e-08
6.27444e-07
3.05574e-08
-5.76341e-07
2.39494e-08
6.25772e-07
2.67141e-08
-5.74651e-07
2.82758e-08
6.22851e-07
2.23665e-08
-5.71706e-07
3.31458e-08
6.18359e-07
1.74698e-08
-5.67198e-07
3.8624e-08
6.11978e-07
1.19682e-08
-5.60795e-07
4.47356e-08
6.03349e-07
5.82739e-09
-5.52152e-07
5.15788e-08
5.92086e-07
-1.04052e-09
-5.40871e-07
5.91779e-08
5.77809e-07
-8.67107e-09
-5.26582e-07
6.76655e-08
5.6009e-07
-1.71841e-08
-5.08849e-07
7.70773e-08
5.38553e-07
-2.66299e-08
-4.87302e-07
8.75658e-08
5.12773e-07
-3.71431e-08
-4.61512e-07
9.91972e-08
4.8241e-07
-4.88091e-08
-4.3114e-07
1.12141e-07
4.47096e-07
-6.17745e-08
-3.9582e-07
1.26499e-07
4.06583e-07
-7.61645e-08
-3.55299e-07
1.42428e-07
3.6064e-07
-9.21116e-08
-3.09353e-07
1.60079e-07
3.09176e-07
-1.0979e-07
-2.57883e-07
1.79575e-07
2.5218e-07
-1.29299e-07
-2.00888e-07
2.01089e-07
1.89806e-07
-1.50833e-07
-1.38516e-07
2.2467e-07
1.22375e-07
-1.74425e-07
-7.10913e-08
2.50464e-07
5.03741e-08
-2.00238e-07
8.93856e-10
2.78383e-07
-2.54402e-08
-2.28175e-07
7.66881e-08
3.0846e-07
-1.0415e-07
-2.58275e-07
1.55361e-07
3.40389e-07
-1.84481e-07
-2.90238e-07
2.35653e-07
3.73941e-07
-2.64999e-07
-3.23829e-07
3.1611e-07
4.08467e-07
-3.43884e-07
-3.58411e-07
3.94932e-07
4.43342e-07
-4.19184e-07
-3.93351e-07
4.70145e-07
4.77637e-07
-4.88549e-07
-4.27727e-07
5.39414e-07
5.10274e-07
-5.49089e-07
-4.60451e-07
5.9985e-07
5.39063e-07
-5.96974e-07
-4.89319e-07
6.47641e-07
5.60107e-07
-6.29158e-07
-5.10409e-07
6.79758e-07
5.74086e-07
-6.48063e-07
-5.24389e-07
6.98646e-07
)
;

boundaryField
{
    inlet
    {
        type            cyclic;
    }
    outlet
    {
        type            cyclic;
    }
    fixedWalls-bottom
    {
        type            zeroGradient;
    }
    fixedWalls-top
    {
        type            symmetry;
    }
    frontAndBack
    {
        type            empty;
    }
}


// ************************************************************************* //
