/*--------------------------------*- C++ -*----------------------------------*\
  =========                 |
  \\      /  F ield         | OpenFOAM: The Open Source CFD Toolbox
   \\    /   O peration     | Website:  https://openfoam.org
    \\  /    A nd           | Version:  10
     \\/     M anipulation  |
\*---------------------------------------------------------------------------*/
FoamFile
{
    format      ascii;
    class       surfaceScalarField;
    location    "172";
    object      phi;
}
// * * * * * * * * * * * * * * * * * * * * * * * * * * * * * * * * * * * * * //

dimensions      [0 3 -1 0 0 0 0];

internalField   nonuniform List<scalar> 
346
(
0.000255124
9.52753e-10
0.000255125
-1.67836e-09
0.000255125
-2.51335e-10
1.65087e-09
0.000789965
1.58862e-09
0.000789969
-6.10975e-09
0.00078997
-9.84022e-10
6.01006e-09
0.00136552
2.5955e-09
0.00136553
-1.27116e-08
0.00136553
-2.03922e-09
1.25776e-08
0.00198396
3.93977e-09
0.00198397
-2.12874e-08
0.00198397
-3.42328e-09
2.10937e-08
0.00264753
5.5052e-09
0.00264754
-3.12549e-08
0.00264754
-5.02102e-09
3.10406e-08
0.00335853
7.25596e-09
0.00335854
-4.23756e-08
0.00335854
-6.78083e-09
4.21148e-08
0.00411936
8.94447e-09
0.00411937
-5.39892e-08
0.00411937
-8.49207e-09
5.37164e-08
0.0049325
1.04713e-08
0.00493251
-6.58423e-08
0.00493251
-1.00144e-08
6.55347e-08
0.00580047
1.14622e-08
0.00580049
-7.72575e-08
0.00580049
-1.10201e-08
7.69426e-08
0.0067259
1.17544e-08
0.00672592
-8.80375e-08
0.00672592
-1.1304e-08
8.7698e-08
0.00771146
1.08687e-08
0.00771147
-9.75521e-08
0.00771147
-1.04294e-08
9.7209e-08
0.00875988
8.59961e-09
0.00875989
-1.05723e-07
0.00875989
-8.15428e-09
1.05364e-07
0.00987395
4.40215e-09
0.00987396
-1.12027e-07
0.00987396
-3.96274e-09
1.11666e-07
0.0110565
-1.90041e-09
0.0110565
-1.16548e-07
0.0110565
2.34112e-09
1.16178e-07
0.0123104
-1.08595e-08
0.0123104
-1.18909e-07
0.0123104
1.12967e-08
1.1854e-07
0.0136386
-2.25539e-08
0.0136386
-1.1937e-07
0.0136386
2.29855e-08
1.18999e-07
0.015044
-3.74868e-08
0.015044
-1.17721e-07
0.015044
3.79203e-08
1.17349e-07
0.0165296
-5.55508e-08
0.0165296
-1.14343e-07
0.0165295
5.59714e-08
1.13976e-07
0.0180981
-7.71587e-08
0.0180981
-1.0918e-07
0.0180981
7.75861e-08
1.08814e-07
0.0197526
-1.01969e-07
0.0197526
-1.02685e-07
0.0197526
1.02376e-07
1.02329e-07
0.0214959
-1.30274e-07
0.0214959
-9.4935e-08
0.0214959
1.30693e-07
9.45798e-08
0.0233307
-1.61504e-07
0.0233307
-8.63556e-08
0.0233307
1.61897e-07
8.60164e-08
0.0252597
-1.95817e-07
0.0252597
-7.7132e-08
0.0252597
1.96226e-07
7.67938e-08
0.0272855
-2.32441e-07
0.0272854
-6.76096e-08
0.0272854
2.32822e-07
6.72927e-08
0.0294103
-2.71358e-07
0.0294103
-5.80499e-08
0.0294103
2.71753e-07
5.77333e-08
0.0316365
-3.11723e-07
0.0316365
-4.86887e-08
0.0316364
3.12092e-07
4.83986e-08
0.0339658
-3.5331e-07
0.0339658
-3.98245e-08
0.0339658
3.53688e-07
3.95339e-08
0.0364001
-3.95259e-07
0.0364001
-3.15846e-08
0.0364
3.95618e-07
3.13257e-08
0.0389404
-4.37073e-07
0.0389404
-2.42311e-08
0.0389404
4.3743e-07
2.39673e-08
0.0415878
-4.78052e-07
0.0415878
-1.78435e-08
0.0415878
4.78396e-07
1.76162e-08
0.0443426
-5.174e-07
0.0443426
-1.25723e-08
0.0443426
5.17729e-07
1.2339e-08
0.0472047
-5.54631e-07
0.0472047
-8.48942e-09
0.0472047
5.54954e-07
8.29766e-09
0.0501733
-5.88648e-07
0.0501733
-5.57521e-09
0.0501732
5.88943e-07
5.37208e-09
0.0532468
-6.19268e-07
0.0532468
-3.96177e-09
0.0532467
6.19562e-07
3.80534e-09
0.0564229
-6.45129e-07
0.0564229
-3.44751e-09
0.0564229
6.45377e-07
3.2789e-09
0.0596983
-6.66311e-07
0.0596983
-4.25174e-09
0.0596983
6.66552e-07
4.13931e-09
0.0630686
-6.8127e-07
0.0630686
-6.05246e-09
0.0630685
6.81475e-07
5.91342e-09
0.0665281
-6.90188e-07
0.0665281
-9.09429e-09
0.0665281
6.90369e-07
9.02293e-09
0.0700698
-6.91417e-07
0.0700698
-1.30087e-08
0.0700698
6.91595e-07
1.28801e-08
0.0736852
-6.85059e-07
0.0736852
-1.79716e-08
0.0736852
6.8519e-07
1.79213e-08
0.0773639
-6.69466e-07
0.0773639
-2.3612e-08
0.0773639
6.69637e-07
2.34797e-08
0.0810935
-6.4441e-07
0.0810935
-2.98985e-08
0.0810936
6.44519e-07
2.98453e-08
0.0848596
-6.08311e-07
0.0848596
-3.64227e-08
0.0848596
6.08483e-07
3.62786e-08
0.088645
-5.60632e-07
0.088645
-4.28877e-08
0.0886451
5.60748e-07
4.28047e-08
0.09243
-5.00065e-07
0.09243
-4.87098e-08
0.0924301
5.00202e-07
4.85887e-08
0.0961916
-4.26172e-07
0.0961916
-5.31331e-08
0.0961917
4.26263e-07
5.30559e-08
0.0999036
-3.38644e-07
0.0999036
-5.47034e-08
0.0999037
3.38704e-07
5.46485e-08
0.103536
-2.38555e-07
0.103536
-4.99404e-08
0.103536
2.38563e-07
4.99345e-08
0.107053
-1.24428e-07
0.107053
-3.8423e-08
0.107053
1.24411e-07
3.84396e-08
0.110417
0.110417
0.110417
)
;

boundaryField
{
    inlet
    {
        type            cyclic;
        value           nonuniform List<scalar> 
50
(
-0.110417
-0.107053
-0.103536
-0.0999037
-0.0961917
-0.0924301
-0.0886451
-0.0848596
-0.0810936
-0.0773639
-0.0736852
-0.0700698
-0.0665281
-0.0630685
-0.0596983
-0.0564229
-0.0532467
-0.0501732
-0.0472047
-0.0443426
-0.0415878
-0.0389404
-0.0364
-0.0339658
-0.0316364
-0.0294103
-0.0272854
-0.0252597
-0.0233307
-0.0214959
-0.0197526
-0.0180981
-0.0165296
-0.015044
-0.0136386
-0.0123104
-0.0110565
-0.00987395
-0.00875988
-0.00771146
-0.0067259
-0.00580047
-0.0049325
-0.00411936
-0.00335853
-0.00264753
-0.00198397
-0.00136553
-0.000789966
-0.000255124
)
;
    }
    outlet
    {
        type            cyclic;
        value           nonuniform List<scalar> 
50
(
0.110417
0.107053
0.103536
0.0999037
0.0961917
0.0924301
0.0886451
0.0848596
0.0810936
0.0773639
0.0736852
0.0700698
0.0665281
0.0630685
0.0596983
0.0564229
0.0532467
0.0501732
0.0472047
0.0443426
0.0415878
0.0389404
0.0364
0.0339658
0.0316364
0.0294103
0.0272854
0.0252597
0.0233307
0.0214959
0.0197526
0.0180981
0.0165296
0.015044
0.0136386
0.0123104
0.0110565
0.00987395
0.00875988
0.00771146
0.0067259
0.00580047
0.0049325
0.00411936
0.00335853
0.00264753
0.00198397
0.00136553
0.000789966
0.000255124
)
;
    }
    fixedWalls-bottom
    {
        type            calculated;
        value           uniform 0;
    }
    fixedWalls-top
    {
        type            symmetry;
        value           uniform 0;
    }
    frontAndBack
    {
        type            empty;
        value           nonuniform List<scalar> 0();
    }
}


// ************************************************************************* //
