/*--------------------------------*- C++ -*----------------------------------*\
  =========                 |
  \\      /  F ield         | OpenFOAM: The Open Source CFD Toolbox
   \\    /   O peration     | Website:  https://openfoam.org
    \\  /    A nd           | Version:  10
     \\/     M anipulation  |
\*---------------------------------------------------------------------------*/
FoamFile
{
    format      ascii;
    class       volSymmTensorField;
    location    "172";
    object      R;
}
// * * * * * * * * * * * * * * * * * * * * * * * * * * * * * * * * * * * * * //

dimensions      [0 2 -2 0 0 0 0];

internalField   nonuniform List<symmTensor> 
200
(
(1.44847e-15 -4.37957e-19 -0 1.44847e-15 -0 1.44847e-15)
(1.44135e-15 -4.35807e-19 -0 1.44135e-15 -0 1.44135e-15)
(1.44344e-15 -4.36443e-19 -0 1.44344e-15 -0 1.44344e-15)
(1.44607e-15 -4.37233e-19 -0 1.44607e-15 -0 1.44607e-15)
(4.3319e-14 -7.6515e-17 -0 4.3319e-14 -0 4.3319e-14)
(4.31057e-14 -7.61386e-17 -0 4.31057e-14 -0 4.31057e-14)
(4.31679e-14 -7.62491e-17 -0 4.31679e-14 -0 4.31679e-14)
(4.32472e-14 -7.63886e-17 -0 4.32472e-14 -0 4.32472e-14)
(3.10273e-13 -1.63547e-15 -0 3.10273e-13 -0 3.10273e-13)
(3.0874e-13 -1.6274e-15 -0 3.0874e-13 -0 3.0874e-13)
(3.09185e-13 -1.62975e-15 -0 3.09185e-13 -0 3.09185e-13)
(3.09759e-13 -1.63277e-15 -0 3.09759e-13 -0 3.09759e-13)
(1.14359e-12 -1.28911e-14 -0 1.14359e-12 -0 1.14359e-12)
(1.13791e-12 -1.28271e-14 -0 1.13791e-12 -0 1.13791e-12)
(1.13956e-12 -1.28457e-14 -0 1.13956e-12 -0 1.13956e-12)
(1.14171e-12 -1.28699e-14 -0 1.14171e-12 -0 1.14171e-12)
(2.99595e-12 -5.99569e-14 -0 2.99595e-12 -0 2.99595e-12)
(2.98096e-12 -5.96564e-14 -0 2.98096e-12 -0 2.98096e-12)
(2.9853e-12 -5.97438e-14 -0 2.9853e-12 -0 2.9853e-12)
(2.99108e-12 -5.98595e-14 -0 2.99108e-12 -0 2.99108e-12)
(6.40858e-12 -2.02821e-13 -0 6.40858e-12 -0 6.40858e-12)
(6.37615e-12 -2.01792e-13 -0 6.37615e-12 -0 6.37615e-12)
(6.38566e-12 -2.02095e-13 -0 6.38566e-12 -0 6.38566e-12)
(6.39846e-12 -2.02502e-13 -0 6.39846e-12 -0 6.39846e-12)
(1.19952e-11 -5.55094e-13 -0 1.19952e-11 -0 1.19952e-11)
(1.19335e-11 -5.52241e-13 -0 1.19335e-11 -0 1.19335e-11)
(1.1952e-11 -5.5311e-13 -0 1.1952e-11 -0 1.1952e-11)
(1.19772e-11 -5.5428e-13 -0 1.19772e-11 -0 1.19772e-11)
(2.0424e-11 -1.30542e-12 -0 2.0424e-11 -0 2.0424e-11)
(2.03166e-11 -1.29862e-12 -0 2.03166e-11 -0 2.03166e-11)
(2.035e-11 -1.30083e-12 -0 2.035e-11 -0 2.035e-11)
(2.03956e-11 -1.30375e-12 -0 2.03956e-11 -0 2.03956e-11)
(3.23942e-11 -2.73633e-12 -0 3.23942e-11 -0 3.23942e-11)
(3.22187e-11 -2.7219e-12 -0 3.22187e-11 -0 3.22187e-11)
(3.22762e-11 -2.72711e-12 -0 3.22762e-11 -0 3.22762e-11)
(3.23542e-11 -2.73368e-12 -0 3.23542e-11 -0 3.23542e-11)
(4.86065e-11 -5.23366e-12 -0 4.86065e-11 -0 4.86065e-11)
(4.83326e-11 -5.20587e-12 -0 4.83326e-11 -0 4.83326e-11)
(4.84285e-11 -5.21756e-12 -0 4.84285e-11 -0 4.84285e-11)
(4.85562e-11 -5.23118e-12 -0 4.85562e-11 -0 4.85562e-11)
(6.97255e-11 -9.27775e-12 -0 6.97255e-11 -0 6.97255e-11)
(6.93123e-11 -9.22839e-12 -0 6.93123e-11 -0 6.93123e-11)
(6.94688e-11 -9.25377e-12 -0 6.94688e-11 -0 6.94688e-11)
(6.96708e-11 -9.28012e-12 -0 6.96707e-11 -0 6.96708e-11)
(9.63363e-11 -1.54087e-11 -0 9.63364e-11 -0 9.63363e-11)
(9.57279e-11 -1.53268e-11 -0 9.57279e-11 -0 9.57279e-11)
(9.59794e-11 -1.53801e-11 -0 9.59794e-11 -0 9.59794e-11)
(9.62892e-11 -1.54282e-11 -0 9.62892e-11 -0 9.62892e-11)
(1.28896e-10 -2.41641e-11 -0 1.28896e-10 -0 1.28896e-10)
(1.28015e-10 -2.40351e-11 -0 1.28015e-10 -0 1.28015e-10)
(1.28415e-10 -2.41427e-11 -0 1.28415e-10 -0 1.28415e-10)
(1.28877e-10 -2.42263e-11 -0 1.28877e-10 -0 1.28877e-10)
(1.67685e-10 -3.59982e-11 -0 1.67685e-10 -0 1.67685e-10)
(1.66426e-10 -3.58015e-11 -0 1.66426e-10 -0 1.66426e-10)
(1.67056e-10 -3.60092e-11 -0 1.67056e-10 -0 1.67056e-10)
(1.67722e-10 -3.61486e-11 -0 1.67722e-10 -0 1.67722e-10)
(2.12715e-10 -5.1189e-11 -0 2.12715e-10 -0 2.12715e-10)
(2.10981e-10 -5.09042e-11 -0 2.10981e-10 -0 2.10981e-10)
(2.11963e-10 -5.12855e-11 -0 2.11963e-10 -0 2.11963e-10)
(2.12843e-10 -5.1498e-11 -0 2.12843e-10 -0 2.12843e-10)
(2.63778e-10 -6.97958e-11 -0 2.63778e-10 -0 2.63778e-10)
(2.61446e-10 -6.93895e-11 -0 2.61446e-10 -0 2.61446e-10)
(2.62954e-10 -7.00521e-11 -0 2.62954e-10 -0 2.62954e-10)
(2.64036e-10 -7.0362e-11 -0 2.64036e-10 -0 2.64036e-10)
(3.20396e-10 -9.16313e-11 -0 3.20396e-10 -0 3.20396e-10)
(3.17314e-10 -9.10448e-11 -0 3.17314e-10 -0 3.17314e-10)
(3.19596e-10 -9.21333e-11 -0 3.19596e-10 -0 3.19596e-10)
(3.20815e-10 -9.25612e-11 -0 3.20815e-10 -0 3.20815e-10)
(3.8183e-10 -1.16277e-10 -0 3.81831e-10 -0 3.8183e-10)
(3.77817e-10 -1.15414e-10 -0 3.77817e-10 -0 3.77817e-10)
(3.81223e-10 -1.17101e-10 -0 3.81223e-10 -0 3.81223e-10)
(3.82421e-10 -1.17674e-10 -0 3.82421e-10 -0 3.82421e-10)
(4.47121e-10 -1.43132e-10 -0 4.47121e-10 -0 4.47121e-10)
(4.41954e-10 -1.41871e-10 -0 4.41953e-10 -0 4.41954e-10)
(4.46932e-10 -1.44333e-10 -0 4.46931e-10 -0 4.46932e-10)
(4.47839e-10 -1.45065e-10 -0 4.4784e-10 -0 4.4784e-10)
(5.15148e-10 -1.71477e-10 -0 5.15148e-10 -0 5.15148e-10)
(5.08543e-10 -1.69693e-10 -0 5.08543e-10 -0 5.08543e-10)
(5.15384e-10 -1.72983e-10 -0 5.15383e-10 -0 5.15383e-10)
(5.15847e-10 -1.73948e-10 -0 5.15847e-10 -0 5.15847e-10)
(5.84733e-10 -2.00549e-10 -0 5.84733e-10 -0 5.84733e-10)
(5.7628e-10 -1.9807e-10 -0 5.7628e-10 -0 5.7628e-10)
(5.85106e-10 -2.02145e-10 -0 5.85105e-10 -0 5.85106e-10)
(5.85066e-10 -2.03447e-10 -0 5.85067e-10 -0 5.85066e-10)
(6.54793e-10 -2.29624e-10 -0 6.54793e-10 -0 6.54793e-10)
(6.438e-10 -2.26194e-10 -0 6.438e-10 -0 6.438e-10)
(6.54588e-10 -2.30935e-10 -0 6.54587e-10 -0 6.54587e-10)
(6.54052e-10 -2.32668e-10 -0 6.54052e-10 -0 6.54052e-10)
(7.23887e-10 -2.5788e-10 -0 7.23888e-10 -0 7.23888e-10)
(7.09733e-10 -2.53279e-10 -0 7.09733e-10 -0 7.09733e-10)
(7.2243e-10 -2.58583e-10 -0 7.22429e-10 -0 7.2243e-10)
(7.2138e-10 -2.60769e-10 -0 7.2138e-10 -0 7.2138e-10)
(7.89419e-10 -2.84096e-10 -0 7.8942e-10 -0 7.89419e-10)
(7.72918e-10 -2.787e-10 -0 7.72918e-10 -0 7.72918e-10)
(7.87633e-10 -2.84564e-10 -0 7.87631e-10 -0 7.87632e-10)
(7.85667e-10 -2.86994e-10 -0 7.85667e-10 -0 7.85667e-10)
(8.49634e-10 -3.0733e-10 -0 8.49636e-10 -0 8.49635e-10)
(8.32293e-10 -3.02007e-10 -0 8.32292e-10 -0 8.32292e-10)
(8.49034e-10 -3.08353e-10 -0 8.49032e-10 -0 8.49033e-10)
(8.45548e-10 -3.10701e-10 -0 8.45548e-10 -0 8.45548e-10)
(9.05301e-10 -3.28242e-10 -0 9.05302e-10 -0 9.05301e-10)
(8.86669e-10 -3.22525e-10 -0 8.86669e-10 -0 8.86669e-10)
(9.05024e-10 -3.29325e-10 -0 9.05022e-10 -0 9.05023e-10)
(9.00502e-10 -3.31667e-10 -0 9.00503e-10 -0 9.00502e-10)
(9.55536e-10 -3.46333e-10 -0 9.55538e-10 -0 9.55537e-10)
(9.35471e-10 -3.40215e-10 -0 9.35471e-10 -0 9.35471e-10)
(9.54491e-10 -3.47113e-10 -0 9.5449e-10 -0 9.5449e-10)
(9.4982e-10 -3.49698e-10 -0 9.49821e-10 -0 9.4982e-10)
(9.95352e-10 -3.59959e-10 -0 9.95354e-10 -0 9.95353e-10)
(9.79072e-10 -3.55316e-10 -0 9.79071e-10 -0 9.79072e-10)
(9.96868e-10 -3.61677e-10 -0 9.96867e-10 -0 9.96868e-10)
(9.92445e-10 -3.64558e-10 -0 9.92446e-10 -0 9.92446e-10)
(1.03137e-09 -3.71835e-10 -0 1.03138e-09 -0 1.03137e-09)
(1.01612e-09 -3.67441e-10 -0 1.01612e-09 -0 1.01612e-09)
(1.02941e-09 -3.72301e-10 -0 1.02941e-09 -0 1.02941e-09)
(1.02895e-09 -3.76664e-10 -0 1.02895e-09 -0 1.02895e-09)
(1.0619e-09 -3.81934e-10 -0 1.0619e-09 -0 1.0619e-09)
(1.04663e-09 -3.76612e-10 -0 1.04663e-09 -0 1.04663e-09)
(1.05843e-09 -3.81696e-10 -0 1.05843e-09 -0 1.05843e-09)
(1.05874e-09 -3.86007e-10 -0 1.05874e-09 -0 1.05874e-09)
(1.08694e-09 -3.89404e-10 -0 1.08694e-09 -0 1.08694e-09)
(1.07077e-09 -3.83208e-10 -0 1.07077e-09 -0 1.07077e-09)
(1.0821e-09 -3.89887e-10 -0 1.08209e-09 -0 1.0821e-09)
(1.0822e-09 -3.92883e-10 -0 1.0822e-09 -0 1.0822e-09)
(1.10583e-09 -3.94934e-10 -0 1.10583e-09 -0 1.10583e-09)
(1.08881e-09 -3.88408e-10 -0 1.08881e-09 -0 1.08881e-09)
(1.09919e-09 -3.94911e-10 -0 1.09919e-09 -0 1.09919e-09)
(1.09918e-09 -3.97995e-10 -0 1.09918e-09 -0 1.09918e-09)
(1.11658e-09 -3.98004e-10 -0 1.11658e-09 -0 1.11658e-09)
(1.10092e-09 -3.92125e-10 -0 1.10092e-09 -0 1.10092e-09)
(1.10927e-09 -3.97565e-10 -0 1.10927e-09 -0 1.10927e-09)
(1.1091e-09 -4.0112e-10 -0 1.10911e-09 -0 1.10911e-09)
(1.11853e-09 -3.98378e-10 -0 1.11853e-09 -0 1.11853e-09)
(1.10745e-09 -3.95712e-10 -0 1.10745e-09 -0 1.10745e-09)
(1.11188e-09 -3.98384e-10 -0 1.11188e-09 -0 1.11188e-09)
(1.11162e-09 -4.01899e-10 -0 1.11162e-09 -0 1.11162e-09)
(1.11198e-09 -3.96539e-10 -0 1.11199e-09 -0 1.11199e-09)
(1.10929e-09 -3.96415e-10 -0 1.10929e-09 -0 1.10929e-09)
(1.10608e-09 -3.97029e-10 -0 1.10608e-09 -0 1.10608e-09)
(1.10695e-09 -4.00867e-10 -0 1.10695e-09 -0 1.10695e-09)
(1.09961e-09 -3.93083e-10 -0 1.09961e-09 -0 1.09961e-09)
(1.10981e-09 -3.95411e-10 -0 1.10981e-09 -0 1.10981e-09)
(1.09035e-09 -3.92977e-10 -0 1.09035e-09 -0 1.09035e-09)
(1.09638e-09 -3.98143e-10 -0 1.09638e-09 -0 1.09638e-09)
(1.0823e-09 -3.87313e-10 -0 1.08231e-09 -0 1.08231e-09)
(1.0874e-09 -3.88001e-10 -0 1.0874e-09 -0 1.0874e-09)
(1.06729e-09 -3.85562e-10 -0 1.06729e-09 -0 1.06729e-09)
(1.08369e-09 -3.94523e-10 -0 1.08369e-09 -0 1.08369e-09)
(1.06e-09 -3.78841e-10 -0 1.06e-09 -0 1.06e-09)
(1.04919e-09 -3.7404e-10 -0 1.04919e-09 -0 1.04919e-09)
(1.03436e-09 -3.72923e-10 -0 1.03436e-09 -0 1.03436e-09)
(1.05717e-09 -3.8519e-10 -0 1.05717e-09 -0 1.05717e-09)
(1.008e-09 -3.57876e-10 -0 1.008e-09 -0 1.008e-09)
(1.00848e-09 -3.57534e-10 -0 1.00848e-09 -0 1.00848e-09)
(9.89605e-10 -3.53202e-10 -0 9.89605e-10 -0 9.89605e-10)
(1.0132e-09 -3.68011e-10 -0 1.0132e-09 -0 1.0132e-09)
(9.55158e-10 -3.33436e-10 -0 9.55158e-10 -0 9.55158e-10)
(9.6333e-10 -3.37052e-10 -0 9.63331e-10 -0 9.63331e-10)
(9.3315e-10 -3.27002e-10 -0 9.3315e-10 -0 9.3315e-10)
(9.50413e-10 -3.41164e-10 -0 9.50412e-10 -0 9.50413e-10)
(9.01114e-10 -3.0354e-10 -0 9.01113e-10 -0 9.01114e-10)
(8.8594e-10 -3.0368e-10 -0 8.8594e-10 -0 8.8594e-10)
(8.68213e-10 -2.95287e-10 -0 8.68213e-10 -0 8.68213e-10)
(8.82606e-10 -3.08683e-10 -0 8.82606e-10 -0 8.82606e-10)
(8.19684e-10 -2.6306e-10 -0 8.19683e-10 -0 8.19684e-10)
(8.03383e-10 -2.62988e-10 -0 8.03384e-10 -0 8.03384e-10)
(7.92413e-10 -2.56809e-10 -0 7.92414e-10 -0 7.92414e-10)
(8.08698e-10 -2.70418e-10 -0 8.08697e-10 -0 8.08697e-10)
(7.20285e-10 -2.15015e-10 -0 7.20284e-10 -0 7.20284e-10)
(7.18831e-10 -2.19402e-10 -0 7.18831e-10 -0 7.18831e-10)
(7.11187e-10 -2.14502e-10 -0 7.11188e-10 -0 7.11187e-10)
(7.18654e-10 -2.24241e-10 -0 7.18654e-10 -0 7.18654e-10)
(6.30283e-10 -1.70125e-10 -0 6.30282e-10 -0 6.30282e-10)
(6.36978e-10 -1.76216e-10 -0 6.36978e-10 -0 6.36978e-10)
(6.29436e-10 -1.71559e-10 -0 6.29438e-10 -0 6.29437e-10)
(6.3641e-10 -1.79961e-10 -0 6.36409e-10 -0 6.36409e-10)
(5.46739e-10 -1.29215e-10 -0 5.46738e-10 -0 5.46739e-10)
(5.65757e-10 -1.37262e-10 -0 5.65757e-10 -0 5.65757e-10)
(5.5033e-10 -1.31449e-10 -0 5.50332e-10 -0 5.50331e-10)
(5.63645e-10 -1.39534e-10 -0 5.63645e-10 -0 5.63645e-10)
(4.72946e-10 -9.43378e-11 -0 4.72944e-10 -0 4.72945e-10)
(4.88596e-10 -9.98421e-11 -0 4.88596e-10 -0 4.88596e-10)
(4.7782e-10 -9.75579e-11 -0 4.77822e-10 -0 4.77821e-10)
(4.83941e-10 -1.00492e-10 -0 4.83941e-10 -0 4.83941e-10)
(4.10695e-10 -6.62577e-11 -0 4.10693e-10 -0 4.10694e-10)
(4.20297e-10 -6.85497e-11 -0 4.20297e-10 -0 4.20297e-10)
(4.1928e-10 -6.85999e-11 -0 4.19282e-10 -0 4.19281e-10)
(4.13838e-10 -6.86326e-11 -0 4.13838e-10 -0 4.13838e-10)
(3.6472e-10 -4.32426e-11 -0 3.64719e-10 -0 3.64719e-10)
(3.64115e-10 -4.35581e-11 -0 3.64115e-10 -0 3.64115e-10)
(3.61819e-10 -4.34622e-11 -0 3.61821e-10 -0 3.6182e-10)
(3.61987e-10 -4.40951e-11 -0 3.61987e-10 -0 3.61987e-10)
(3.24059e-10 -2.3727e-11 -0 3.24057e-10 -0 3.24058e-10)
(3.31084e-10 -2.44243e-11 -0 3.31084e-10 -0 3.31084e-10)
(3.23261e-10 -2.39813e-11 -0 3.23263e-10 -0 3.23262e-10)
(3.30739e-10 -2.49594e-11 -0 3.30739e-10 -0 3.30739e-10)
(3.02885e-10 -7.58227e-12 -0 3.02883e-10 -0 3.02884e-10)
(3.1203e-10 -7.94712e-12 -0 3.12029e-10 -0 3.1203e-10)
(3.02734e-10 -7.75058e-12 -0 3.02736e-10 -0 3.02735e-10)
(3.11938e-10 -8.13437e-12 -0 3.11938e-10 -0 3.11938e-10)
)
;

boundaryField
{
    inlet
    {
        type            cyclic;
    }
    outlet
    {
        type            cyclic;
    }
    fixedWalls-bottom
    {
        type            kqRWallFunction;
        value           nonuniform List<symmTensor> 4((1.44847e-15 -0 -0 1.44847e-15 -0 1.44847e-15) (1.44135e-15 -0 -0 1.44135e-15 -0 1.44135e-15) (1.44344e-15 -0 -0 1.44344e-15 -0 1.44344e-15) (1.44607e-15 -0 -0 1.44607e-15 -0 1.44607e-15));
    }
    fixedWalls-top
    {
        type            symmetry;
    }
    frontAndBack
    {
        type            empty;
    }
}


// ************************************************************************* //
