/*--------------------------------*- C++ -*----------------------------------*\
  =========                 |
  \\      /  F ield         | OpenFOAM: The Open Source CFD Toolbox
   \\    /   O peration     | Website:  https://openfoam.org
    \\  /    A nd           | Version:  10
     \\/     M anipulation  |
\*---------------------------------------------------------------------------*/
FoamFile
{
    format      ascii;
    class       volVectorField;
    location    "172";
    object      U;
}
// * * * * * * * * * * * * * * * * * * * * * * * * * * * * * * * * * * * * * //

dimensions      [0 1 -1 0 0 0 0];

internalField   nonuniform List<vector> 
200
(
(0.0138462 4.18002e-10 0)
(0.0138462 -4.15477e-10 0)
(0.0138464 -8.50197e-11 0)
(0.0138463 3.81124e-10 0)
(0.0416774 1.27722e-09 0)
(0.0416775 -3.38659e-09 0)
(0.0416779 -5.10876e-10 0)
(0.0416776 3.34621e-09 0)
(0.0700335 2.02766e-09 0)
(0.0700336 -8.94039e-09 0)
(0.0700341 -1.42944e-09 0)
(0.0700337 8.81928e-09 0)
(0.098913 3.24054e-09 0)
(0.0989131 -1.66224e-08 0)
(0.0989138 -2.66095e-09 0)
(0.0989132 1.64576e-08 0)
(0.128314 4.69889e-09 0)
(0.128314 -2.60258e-08 0)
(0.128315 -4.18096e-09 0)
(0.128314 2.58191e-08 0)
(0.158232 6.37886e-09 0)
(0.158232 -3.66935e-08 0)
(0.158233 -5.89469e-09 0)
(0.158232 3.64525e-08 0)
(0.188664 8.1367e-09 0)
(0.188664 -4.81789e-08 0)
(0.188665 -7.6733e-09 0)
(0.188664 4.79087e-08 0)
(0.219603 9.79282e-09 0)
(0.219603 -6.00242e-08 0)
(0.219604 -9.3429e-09 0)
(0.219603 5.97306e-08 0)
(0.251043 1.1117e-08 0)
(0.251043 -7.1765e-08 0)
(0.251044 -1.06716e-08 0)
(0.251043 7.14511e-08 0)
(0.282975 1.18297e-08 0)
(0.282975 -8.29546e-08 0)
(0.282976 -1.13878e-08 0)
(0.282975 8.26248e-08 0)
(0.31539 1.16155e-08 0)
(0.31539 -9.31823e-08 0)
(0.315391 -1.11732e-08 0)
(0.31539 9.2839e-08 0)
(0.348275 1.0118e-08 0)
(0.348275 -1.02081e-07 0)
(0.348276 -9.67763e-09 0)
(0.348275 1.01728e-07 0)
(0.381618 6.96863e-09 0)
(0.381617 -1.09359e-07 0)
(0.381618 -6.52703e-09 0)
(0.381617 1.08997e-07 0)
(0.415402 1.79028e-09 0)
(0.415402 -1.14782e-07 0)
(0.415402 -1.35058e-09 0)
(0.415401 1.14416e-07 0)
(0.449611 -5.77252e-09 0)
(0.449611 -1.1822e-07 0)
(0.449612 6.21148e-09 0)
(0.44961 1.1785e-07 0)
(0.484226 -1.60534e-08 0)
(0.484225 -1.19598e-07 0)
(0.484226 1.64881e-08 0)
(0.484224 1.19227e-07 0)
(0.519223 -2.93312e-08 0)
(0.519223 -1.1896e-07 0)
(0.519223 2.97637e-08 0)
(0.519222 1.18589e-07 0)
(0.55458 -4.58235e-08 0)
(0.55458 -1.16378e-07 0)
(0.55458 4.62509e-08 0)
(0.554578 1.16008e-07 0)
(0.590268 -6.56662e-08 0)
(0.590268 -1.12037e-07 0)
(0.590268 6.60898e-08 0)
(0.590267 1.1167e-07 0)
(0.626259 -8.89153e-08 0)
(0.626258 -1.0612e-07 0)
(0.626258 8.93326e-08 0)
(0.626257 1.05759e-07 0)
(0.662518 -1.15525e-07 0)
(0.662517 -9.89146e-08 0)
(0.662517 1.15937e-07 0)
(0.662515 9.85594e-08 0)
(0.699009 -1.45377e-07 0)
(0.699008 -9.06583e-08 0)
(0.699008 1.45782e-07 0)
(0.699007 9.03116e-08 0)
(0.735692 -1.7824e-07 0)
(0.735692 -8.1676e-08 0)
(0.735692 1.78639e-07 0)
(0.73569 8.13377e-08 0)
(0.772524 -2.13829e-07 0)
(0.772524 -7.22214e-08 0)
(0.772524 2.14222e-07 0)
(0.772522 7.18945e-08 0)
(0.809457 -2.51723e-07 0)
(0.809457 -6.26122e-08 0)
(0.809456 2.52108e-07 0)
(0.809455 6.22955e-08 0)
(0.846438 -2.9151e-07 0)
(0.846438 -5.30889e-08 0)
(0.846437 2.91888e-07 0)
(0.846436 5.27856e-08 0)
(0.88341 -3.32632e-07 0)
(0.88341 -4.39267e-08 0)
(0.88341 3.33001e-07 0)
(0.883408 4.36354e-08 0)
(0.920313 -3.74558e-07 0)
(0.920313 -3.53368e-08 0)
(0.920312 3.74922e-07 0)
(0.92031 3.50606e-08 0)
(0.957077 -4.16599e-07 0)
(0.957077 -2.75142e-08 0)
(0.957077 4.16952e-07 0)
(0.957075 2.72503e-08 0)
(0.993632 -4.58157e-07 0)
(0.993632 -2.06336e-08 0)
(0.993631 4.58502e-07 0)
(0.99363 2.03849e-08 0)
(1.0299 -4.98486e-07 0)
(1.0299 -1.48054e-08 0)
(1.0299 4.98817e-07 0)
(1.0299 1.45713e-08 0)
(1.06579 -5.36931e-07 0)
(1.06579 -1.01491e-08 0)
(1.06579 5.37253e-07 0)
(1.06579 9.93235e-09 0)
(1.10121 -5.7272e-07 0)
(1.10121 -6.68229e-09 0)
(1.10121 5.73026e-07 0)
(1.10121 6.48141e-09 0)
(1.13607 -6.05184e-07 0)
(1.13607 -4.47188e-09 0)
(1.13607 6.05477e-07 0)
(1.13607 4.28918e-09 0)
(1.17025 -6.33584e-07 0)
(1.17025 -3.47581e-09 0)
(1.17025 6.33856e-07 0)
(1.17025 3.31309e-09 0)
(1.20365 -6.57241e-07 0)
(1.20365 -3.71239e-09 0)
(1.20365 6.57489e-07 0)
(1.20365 3.57298e-09 0)
(1.23613 -6.75462e-07 0)
(1.23613 -5.12752e-09 0)
(1.23613 6.7569e-07 0)
(1.23613 5.00754e-09 0)
(1.26756 -6.87523e-07 0)
(1.26756 -7.69035e-09 0)
(1.26756 6.87724e-07 0)
(1.26756 7.5915e-09 0)
(1.2978 -6.92729e-07 0)
(1.2978 -1.13398e-08 0)
(1.2978 6.92916e-07 0)
(1.2978 1.12504e-08 0)
(1.32669 -6.9027e-07 0)
(1.32669 -1.59828e-08 0)
(1.32669 6.90432e-07 0)
(1.32669 1.59016e-08 0)
(1.35407 -6.79393e-07 0)
(1.35407 -2.1527e-08 0)
(1.35407 6.79548e-07 0)
(1.35407 2.14455e-08 0)
(1.37976 -6.59136e-07 0)
(1.37976 -2.77601e-08 0)
(1.37976 6.59279e-07 0)
(1.37976 2.76729e-08 0)
(1.40356 -6.28596e-07 0)
(1.40356 -3.44536e-08 0)
(1.40356 6.28739e-07 0)
(1.40356 3.43615e-08 0)
(1.42527 -5.86752e-07 0)
(1.42527 -4.12238e-08 0)
(1.42527 5.86904e-07 0)
(1.42527 4.11195e-08 0)
(1.44467 -5.3269e-07 0)
(1.44467 -4.77147e-08 0)
(1.44467 5.32834e-07 0)
(1.44467 4.763e-08 0)
(1.46152 -4.65373e-07 0)
(1.46152 -5.34487e-08 0)
(1.46152 4.65517e-07 0)
(1.46152 5.33775e-08 0)
(1.47558 -3.83667e-07 0)
(1.47558 -5.74345e-08 0)
(1.47558 3.8377e-07 0)
(1.47558 5.73954e-08 0)
(1.48657 -2.89093e-07 0)
(1.48656 -5.52978e-08 0)
(1.48657 2.89172e-07 0)
(1.48657 5.53138e-08 0)
(1.49419 -1.82783e-07 0)
(1.49419 -4.76038e-08 0)
(1.49419 1.82498e-07 0)
(1.4942 4.7318e-08 0)
(1.49815 -6.42048e-08 0)
(1.49815 -1.83898e-08 0)
(1.49815 6.44999e-08 0)
(1.49816 1.87121e-08 0)
)
;

boundaryField
{
    inlet
    {
        type            cyclic;
    }
    outlet
    {
        type            cyclic;
    }
    fixedWalls-bottom
    {
        type            noSlip;
    }
    fixedWalls-top
    {
        type            symmetry;
    }
    frontAndBack
    {
        type            empty;
    }
}


// ************************************************************************* //
