/*--------------------------------*- C++ -*----------------------------------*\
  =========                 |
  \\      /  F ield         | OpenFOAM: The Open Source CFD Toolbox
   \\    /   O peration     | Website:  https://openfoam.org
    \\  /    A nd           | Version:  10
     \\/     M anipulation  |
\*---------------------------------------------------------------------------*/
FoamFile
{
    format      ascii;
    class       surfaceScalarField;
    location    "4239";
    object      phi;
}
// * * * * * * * * * * * * * * * * * * * * * * * * * * * * * * * * * * * * * //

dimensions      [0 3 -1 0 0 0 0];

internalField   nonuniform List<scalar> 
696
(
0.000344847
-1.04045e-09
0.000344838
8.89152e-09
0.000344837
1.0275e-09
-8.89138e-09
0.00105072
-2.4122e-09
0.0010507
3.57021e-08
0.00105069
2.39935e-09
-3.57016e-08
0.00178141
-2.21419e-09
0.00178136
8.07667e-08
0.00178136
2.20171e-09
-8.07659e-08
0.00252759
2.0119e-09
0.00252753
1.42322e-07
0.00252754
-2.02424e-09
-1.42321e-07
0.00326165
1.26766e-08
0.00326158
2.11824e-07
0.00326159
-1.26886e-08
-2.11822e-07
0.00394613
3.10241e-08
0.00394607
2.73956e-07
0.00394608
-3.10359e-08
-2.73954e-07
0.00455979
5.61384e-08
0.00455975
3.16611e-07
0.00455978
-5.61499e-08
-3.1661e-07
0.00510501
8.71118e-08
0.00510498
3.43285e-07
0.00510501
-8.71231e-08
-3.43283e-07
0.00559531
1.21992e-07
0.0055953
3.60945e-07
0.00559533
-1.22003e-07
-3.60943e-07
0.00604271
1.57286e-07
0.0060427
3.72062e-07
0.00604273
-1.57297e-07
-3.7206e-07
0.00645554
1.89783e-07
0.00645554
3.7822e-07
0.00645557
-1.89794e-07
-3.78218e-07
0.00684058
2.17141e-07
0.00684058
3.80445e-07
0.0068406
-2.17152e-07
-3.80443e-07
0.00720332
2.37961e-07
0.00720332
3.79321e-07
0.00720334
-2.37972e-07
-3.79319e-07
0.00754816
2.51736e-07
0.00754816
3.75068e-07
0.00754817
-2.51746e-07
-3.75065e-07
0.00787859
2.5878e-07
0.00787859
3.67672e-07
0.0078786
-2.5879e-07
-3.6767e-07
0.00819739
2.60024e-07
0.0081974
3.57084e-07
0.0081974
-2.60034e-07
-3.57081e-07
0.0085068
2.56763e-07
0.00850681
3.43375e-07
0.00850681
-2.56773e-07
-3.43373e-07
0.00880862
2.50412e-07
0.00880863
3.26828e-07
0.00880863
-2.50422e-07
-3.26825e-07
0.00910432
2.42302e-07
0.00910434
3.07957e-07
0.00910433
-2.42312e-07
-3.07954e-07
0.00939511
2.33521e-07
0.00939513
2.87475e-07
0.00939512
-2.33531e-07
-2.87473e-07
0.00968201
2.24837e-07
0.00968203
2.66207e-07
0.00968202
-2.24847e-07
-2.66204e-07
0.00996586
2.16715e-07
0.00996588
2.4496e-07
0.00996587
-2.16725e-07
-2.44957e-07
0.0102474
2.09378e-07
0.0102474
2.24422e-07
0.0102474
-2.09387e-07
-2.24419e-07
0.0105272
2.02911e-07
0.0105272
2.05077e-07
0.0105272
-2.02921e-07
-2.05074e-07
0.0108059
1.9733e-07
0.0108059
1.87196e-07
0.0108059
-1.9734e-07
-1.87193e-07
0.0110839
1.92587e-07
0.0110839
1.70901e-07
0.0110839
-1.92597e-07
-1.70898e-07
0.0113616
1.88588e-07
0.0113616
1.5623e-07
0.0113616
-1.88598e-07
-1.56227e-07
0.0116394
1.85221e-07
0.0116394
1.43164e-07
0.0116394
-1.85231e-07
-1.43161e-07
0.0119177
1.82374e-07
0.0119178
1.31643e-07
0.0119178
-1.82383e-07
-1.31641e-07
0.0121968
1.79937e-07
0.0121969
1.21578e-07
0.0121969
-1.79946e-07
-1.21575e-07
0.012477
1.77809e-07
0.012477
1.12856e-07
0.012477
-1.77818e-07
-1.12853e-07
0.0127585
1.75897e-07
0.0127585
1.05357e-07
0.0127585
-1.75906e-07
-1.05354e-07
0.0130417
1.74115e-07
0.0130417
9.89588e-08
0.0130417
-1.74124e-07
-9.89559e-08
0.0133266
1.72385e-07
0.0133266
9.35426e-08
0.0133266
-1.72394e-07
-9.35396e-08
0.0136136
1.70639e-07
0.0136136
8.90014e-08
0.0136136
-1.70647e-07
-8.89984e-08
0.0139029
1.68828e-07
0.0139029
8.52436e-08
0.0139029
-1.68837e-07
-8.52406e-08
0.0141947
1.66942e-07
0.0141947
8.21926e-08
0.0141947
-1.6695e-07
-8.21896e-08
0.0144891
1.65022e-07
0.0144891
7.97712e-08
0.0144891
-1.65031e-07
-7.97681e-08
0.0147864
1.63175e-07
0.0147864
7.78683e-08
0.0147864
-1.63183e-07
-7.78653e-08
0.0150866
1.61531e-07
0.0150866
7.62923e-08
0.0150866
-1.61539e-07
-7.62892e-08
0.01539
1.60174e-07
0.01539
7.47302e-08
0.01539
-1.60182e-07
-7.47271e-08
0.0156967
1.5899e-07
0.0156967
7.2751e-08
0.0156967
-1.58998e-07
-7.27479e-08
0.0160067
1.5749e-07
0.0160067
6.99144e-08
0.0160067
-1.57498e-07
-6.99113e-08
0.0163202
1.54654e-07
0.0163202
6.6031e-08
0.0163202
-1.54662e-07
-6.6028e-08
0.0166372
1.48912e-07
0.0166372
6.15651e-08
0.0166372
-1.48919e-07
-6.1562e-08
0.0169578
1.38366e-07
0.0169578
5.80498e-08
0.0169578
-1.38374e-07
-5.80467e-08
0.017282
1.21412e-07
0.017282
5.81888e-08
0.017282
-1.2142e-07
-5.81857e-08
0.0176099
9.7702e-08
0.0176099
6.50488e-08
0.0176099
-9.77098e-08
-6.50457e-08
0.0179417
6.91807e-08
0.0179417
7.95198e-08
0.0179417
-6.91884e-08
-7.95166e-08
0.0182776
4.06693e-08
0.0182776
9.51286e-08
0.0182776
-4.06769e-08
-9.51255e-08
0.018618
1.4867e-08
0.018618
1.06498e-07
0.0186179
-1.48745e-08
-1.06495e-07
0.0189631
-8.81816e-09
0.0189631
1.14586e-07
0.0189631
8.81075e-09
-1.14583e-07
0.0193132
-3.04754e-08
0.0193132
1.20242e-07
0.0193132
3.04681e-08
-1.20239e-07
0.0196682
-4.98552e-08
0.0196682
1.24125e-07
0.0196682
4.98481e-08
-1.24122e-07
0.0200285
-6.65247e-08
0.0200285
1.2673e-07
0.0200284
6.65177e-08
-1.26727e-07
0.0203939
-7.99905e-08
0.0203939
1.2849e-07
0.0203939
7.99836e-08
-1.28487e-07
0.0207648
-8.97441e-08
0.0207648
1.29721e-07
0.0207647
8.97373e-08
-1.29718e-07
0.0211411
-9.53314e-08
0.0211411
1.30587e-07
0.0211411
9.53248e-08
-1.30585e-07
0.021523
-9.64518e-08
0.021523
1.31138e-07
0.021523
9.64454e-08
-1.31135e-07
0.0219106
-9.30226e-08
0.0219106
1.31314e-07
0.0219106
9.30163e-08
-1.31312e-07
0.022304
-8.52018e-08
0.022304
1.30965e-07
0.0223041
8.51957e-08
-1.30963e-07
0.0227034
-7.33853e-08
0.0227034
1.29878e-07
0.0227034
7.33794e-08
-1.29876e-07
0.0231087
-5.81892e-08
0.0231087
1.2785e-07
0.0231088
5.81834e-08
-1.27848e-07
0.0235202
-4.0435e-08
0.0235202
1.24768e-07
0.0235202
4.04293e-08
-1.24765e-07
0.0239379
-2.11499e-08
0.0239379
1.20693e-07
0.0239379
2.11444e-08
-1.20691e-07
0.0243619
-1.57835e-09
0.0243619
1.16025e-07
0.0243619
1.57296e-09
-1.16023e-07
0.0247923
1.71269e-08
0.0247923
1.11431e-07
0.0247924
-1.71321e-08
-1.11429e-07
0.0252293
3.4267e-08
0.0252293
1.07465e-07
0.0252293
-3.42722e-08
-1.07463e-07
0.0256728
4.99124e-08
0.0256728
1.04463e-07
0.0256728
-4.99175e-08
-1.04461e-07
0.0261229
6.43546e-08
0.0261229
1.02765e-07
0.026123
-6.43595e-08
-1.02763e-07
0.0265799
7.74342e-08
0.0265799
1.02689e-07
0.0265799
-7.74391e-08
-1.02687e-07
0.0270437
8.88603e-08
0.0270437
1.04401e-07
0.0270437
-8.8865e-08
-1.04399e-07
0.0275144
9.797e-08
0.0275144
1.07674e-07
0.0275144
-9.79746e-08
-1.07672e-07
0.027992
1.04979e-07
0.027992
1.12434e-07
0.027992
-1.04983e-07
-1.12432e-07
0.0284768
1.09993e-07
0.0284768
1.18585e-07
0.0284768
-1.09997e-07
-1.18583e-07
0.0289686
1.12762e-07
0.0289686
1.254e-07
0.0289686
-1.12767e-07
-1.25398e-07
0.0294675
1.14946e-07
0.0294675
1.31681e-07
0.0294675
-1.1495e-07
-1.31679e-07
0.0299736
1.18006e-07
0.0299736
1.37123e-07
0.0299736
-1.1801e-07
-1.37121e-07
0.0304869
1.22173e-07
0.0304869
1.42307e-07
0.0304869
-1.22177e-07
-1.42305e-07
0.0310073
1.27428e-07
0.0310073
1.47474e-07
0.0310073
-1.27432e-07
-1.47472e-07
0.0315349
1.33491e-07
0.0315349
1.53321e-07
0.0315349
-1.33495e-07
-1.53319e-07
0.0320696
1.38606e-07
0.0320696
1.60262e-07
0.0320696
-1.3861e-07
-1.60259e-07
0.0326114
1.44545e-07
0.0326113
1.68398e-07
0.0326114
-1.44549e-07
-1.68396e-07
0.03316
1.54108e-07
0.03316
1.78331e-07
0.03316
-1.54112e-07
-1.78329e-07
0.0337154
1.62986e-07
0.0337154
1.90233e-07
0.0337154
-1.6299e-07
-1.9023e-07
0.0342774
1.67208e-07
0.0342774
2.03027e-07
0.0342774
-1.67212e-07
-2.03025e-07
0.0348458
1.66846e-07
0.0348458
2.13962e-07
0.0348458
-1.6685e-07
-2.13959e-07
0.0354202
1.65443e-07
0.0354202
2.20396e-07
0.0354202
-1.65447e-07
-2.20393e-07
0.0360004
1.64832e-07
0.0360004
2.1892e-07
0.0360004
-1.64836e-07
-2.18917e-07
0.0365859
1.61114e-07
0.0365859
2.10395e-07
0.0365859
-1.61117e-07
-2.10392e-07
0.0371762
1.54151e-07
0.0371762
1.94475e-07
0.0371762
-1.54155e-07
-1.94472e-07
0.0377708
1.44324e-07
0.0377708
1.72968e-07
0.0377708
-1.44328e-07
-1.72965e-07
0.0383691
1.30238e-07
0.0383691
1.52071e-07
0.0383691
-1.30241e-07
-1.52068e-07
0.0389704
1.12695e-07
0.0389705
1.32587e-07
0.0389704
-1.12698e-07
-1.32584e-07
0.0395741
9.26113e-08
0.0395741
1.13975e-07
0.0395741
-9.26137e-08
-1.13972e-07
0.0401793
7.11821e-08
0.0401793
9.48926e-08
0.0401793
-7.1184e-08
-9.48909e-08
0.0407852
4.9872e-08
0.0407853
7.37448e-08
0.0407852
-4.98735e-08
-7.37435e-08
0.0413911
3.09464e-08
0.0413912
4.96895e-08
0.0413912
-3.09474e-08
-4.96886e-08
0.0419962
1.51321e-08
0.0419962
2.46691e-08
0.0419962
-1.51325e-08
-2.46686e-08
0.0425995
0.0425995
0.0425995
)
;

boundaryField
{
    inlet
    {
        type            cyclic;
        value           nonuniform List<scalar> 
100
(
-0.0425994
-0.0419961
-0.0413911
-0.0407852
-0.0401793
-0.0395741
-0.0389704
-0.0383691
-0.0377708
-0.0371762
-0.0365859
-0.0360004
-0.0354202
-0.0348458
-0.0342774
-0.0337154
-0.03316
-0.0326114
-0.0320696
-0.0315349
-0.0310073
-0.0304869
-0.0299736
-0.0294675
-0.0289686
-0.0284768
-0.027992
-0.0275144
-0.0270437
-0.0265799
-0.026123
-0.0256728
-0.0252293
-0.0247924
-0.0243619
-0.0239379
-0.0235202
-0.0231088
-0.0227034
-0.0223041
-0.0219106
-0.021523
-0.0211411
-0.0207647
-0.0203939
-0.0200284
-0.0196682
-0.0193132
-0.0189631
-0.018618
-0.0182776
-0.0179417
-0.0176099
-0.017282
-0.0169578
-0.0166372
-0.0163202
-0.0160067
-0.0156967
-0.01539
-0.0150866
-0.0147864
-0.0144891
-0.0141947
-0.0139029
-0.0136136
-0.0133266
-0.0130417
-0.0127585
-0.012477
-0.0121968
-0.0119177
-0.0116394
-0.0113616
-0.0110839
-0.0108059
-0.0105272
-0.0102474
-0.00996585
-0.009682
-0.0093951
-0.00910431
-0.00880861
-0.0085068
-0.00819739
-0.00787859
-0.00754817
-0.00720334
-0.00684061
-0.00645558
-0.00604275
-0.00559535
-0.00510504
-0.00455982
-0.00394615
-0.00326166
-0.0025276
-0.00178141
-0.00105072
-0.000344846
)
;
    }
    outlet
    {
        type            cyclic;
        value           nonuniform List<scalar> 
100
(
0.0425994
0.0419961
0.0413911
0.0407852
0.0401793
0.0395741
0.0389704
0.0383691
0.0377708
0.0371762
0.0365859
0.0360004
0.0354202
0.0348458
0.0342774
0.0337154
0.03316
0.0326114
0.0320696
0.0315349
0.0310073
0.0304869
0.0299736
0.0294675
0.0289686
0.0284768
0.027992
0.0275144
0.0270437
0.0265799
0.026123
0.0256728
0.0252293
0.0247924
0.0243619
0.0239379
0.0235202
0.0231088
0.0227034
0.0223041
0.0219106
0.021523
0.0211411
0.0207647
0.0203939
0.0200284
0.0196682
0.0193132
0.0189631
0.018618
0.0182776
0.0179417
0.0176099
0.017282
0.0169578
0.0166372
0.0163202
0.0160067
0.0156967
0.01539
0.0150866
0.0147864
0.0144891
0.0141947
0.0139029
0.0136136
0.0133266
0.0130417
0.0127585
0.012477
0.0121968
0.0119177
0.0116394
0.0113616
0.0110839
0.0108059
0.0105272
0.0102474
0.00996585
0.009682
0.0093951
0.00910431
0.00880861
0.0085068
0.00819739
0.00787859
0.00754817
0.00720334
0.00684061
0.00645558
0.00604275
0.00559535
0.00510504
0.00455982
0.00394615
0.00326166
0.0025276
0.00178141
0.00105072
0.000344846
)
;
    }
    fixedWalls-bottom
    {
        type            calculated;
        value           uniform 0;
    }
    fixedWalls-top
    {
        type            symmetry;
        value           uniform 0;
    }
    frontAndBack
    {
        type            empty;
        value           nonuniform List<scalar> 0();
    }
}


// ************************************************************************* //
