/*--------------------------------*- C++ -*----------------------------------*\
  =========                 |
  \\      /  F ield         | OpenFOAM: The Open Source CFD Toolbox
   \\    /   O peration     | Website:  https://openfoam.org
    \\  /    A nd           | Version:  10
     \\/     M anipulation  |
\*---------------------------------------------------------------------------*/
FoamFile
{
    format      ascii;
    class       volSymmTensorField;
    location    "4239";
    object      R;
}
// * * * * * * * * * * * * * * * * * * * * * * * * * * * * * * * * * * * * * //

dimensions      [0 2 -2 0 0 0 0];

internalField   nonuniform List<symmTensor> 
400
(
(6.12664e-07 -4.56783e-09 -0 6.12664e-07 -0 6.12664e-07)
(6.12396e-07 -4.56568e-09 -0 6.12396e-07 -0 6.12396e-07)
(6.12384e-07 -4.56551e-09 -0 6.12384e-07 -0 6.12384e-07)
(6.12459e-07 -4.56615e-09 -0 6.12459e-07 -0 6.12459e-07)
(1.83752e-05 -7.9363e-07 -0 1.83752e-05 -0 1.83752e-05)
(1.83671e-05 -7.93254e-07 -0 1.83671e-05 -0 1.83671e-05)
(1.83668e-05 -7.93227e-07 -0 1.83668e-05 -0 1.83668e-05)
(1.83691e-05 -7.93338e-07 -0 1.83691e-05 -0 1.83691e-05)
(0.000129349 -1.60112e-05 -0 0.000129349 -0 0.000129349)
(0.000129293 -1.60035e-05 -0 0.000129292 -0 0.000129293)
(0.00012929 -1.60031e-05 -0 0.00012929 -0 0.00012929)
(0.000129306 -1.60053e-05 -0 0.000129306 -0 0.000129306)
(0.000453584 -0.000107529 -0 0.000453584 -0 0.000453584)
(0.000453387 -0.000107475 -0 0.000453387 -0 0.000453387)
(0.000453382 -0.000107473 -0 0.000453382 -0 0.000453382)
(0.000453437 -0.000107489 -0 0.000453437 -0 0.000453437)
(0.00105491 -0.000363074 -0 0.00105491 -0 0.00105491)
(0.00105448 -0.000362887 -0 0.00105448 -0 0.00105448)
(0.00105448 -0.00036289 -0 0.00105448 -0 0.00105448)
(0.00105461 -0.000362938 -0 0.00105461 -0 0.00105461)
(0.00183422 -0.000762049 -0 0.00183422 -0 0.00183422)
(0.00183357 -0.000761685 -0 0.00183357 -0 0.00183357)
(0.0018336 -0.000761704 -0 0.0018336 -0 0.0018336)
(0.00183381 -0.000761799 -0 0.00183381 -0 0.00183381)
(0.00261238 -0.00118035 -0 0.00261238 -0 0.00261238)
(0.00261166 -0.00117987 -0 0.00261165 -0 0.00261165)
(0.00261172 -0.00117993 -0 0.00261172 -0 0.00261172)
(0.00261202 -0.00118007 -0 0.00261203 -0 0.00261203)
(0.00328416 -0.00152713 -0 0.00328415 -0 0.00328415)
(0.00328345 -0.00152681 -0 0.00328345 -0 0.00328345)
(0.00328359 -0.00152687 -0 0.00328359 -0 0.00328359)
(0.00328397 -0.00152705 -0 0.00328397 -0 0.00328397)
(0.00383073 -0.00178129 -0 0.00383073 -0 0.00383073)
(0.00383007 -0.00178098 -0 0.00383006 -0 0.00383006)
(0.00383028 -0.00178108 -0 0.00383029 -0 0.00383029)
(0.00383073 -0.00178129 -0 0.00383073 -0 0.00383073)
(0.00426838 -0.00198481 -0 0.00426837 -0 0.00426838)
(0.00426776 -0.00198452 -0 0.00426775 -0 0.00426776)
(0.00426807 -0.00198467 -0 0.00426808 -0 0.00426808)
(0.00426856 -0.00198489 -0 0.00426856 -0 0.00426856)
(0.00461519 -0.00214612 -0 0.00461518 -0 0.00461519)
(0.00461461 -0.00214586 -0 0.00461461 -0 0.00461461)
(0.00461502 -0.00214605 -0 0.00461503 -0 0.00461502)
(0.00461552 -0.00214628 -0 0.00461553 -0 0.00461553)
(0.00488904 -0.00227363 -0 0.00488903 -0 0.00488904)
(0.00488851 -0.00227339 -0 0.00488851 -0 0.00488851)
(0.00488899 -0.00227361 -0 0.004889 -0 0.00488899)
(0.0048895 -0.00227385 -0 0.0048895 -0 0.0048895)
(0.00510534 -0.00237406 -0 0.00510533 -0 0.00510533)
(0.00510486 -0.00237384 -0 0.00510486 -0 0.00510486)
(0.00510538 -0.00237409 -0 0.00510539 -0 0.00510539)
(0.00510589 -0.00237432 -0 0.00510588 -0 0.00510589)
(0.00527648 -0.00245359 -0 0.00527647 -0 0.00527647)
(0.00527604 -0.00245339 -0 0.00527604 -0 0.00527604)
(0.00527659 -0.00245365 -0 0.00527659 -0 0.00527659)
(0.00527707 -0.00245387 -0 0.00527707 -0 0.00527707)
(0.00541205 -0.00251661 -0 0.00541204 -0 0.00541205)
(0.00541165 -0.00251643 -0 0.00541165 -0 0.00541165)
(0.0054122 -0.00251669 -0 0.00541221 -0 0.0054122)
(0.00541265 -0.0025169 -0 0.00541265 -0 0.00541265)
(0.0055194 -0.00256653 -0 0.0055194 -0 0.0055194)
(0.00551904 -0.00256636 -0 0.00551905 -0 0.00551904)
(0.00551958 -0.00256661 -0 0.00551958 -0 0.00551958)
(0.00551999 -0.0025668 -0 0.00551998 -0 0.00551998)
(0.00560415 -0.00260593 -0 0.00560416 -0 0.00560416)
(0.00560382 -0.00260578 -0 0.00560383 -0 0.00560383)
(0.00560434 -0.00260602 -0 0.00560434 -0 0.00560434)
(0.00560469 -0.00260618 -0 0.00560468 -0 0.00560469)
(0.00567059 -0.00263683 -0 0.0056706 -0 0.00567059)
(0.0056703 -0.00263669 -0 0.00567031 -0 0.0056703)
(0.00567078 -0.00263691 -0 0.00567077 -0 0.00567077)
(0.00567107 -0.00263704 -0 0.00567105 -0 0.00567106)
(0.00572202 -0.00266074 -0 0.00572202 -0 0.00572202)
(0.00572176 -0.00266062 -0 0.00572177 -0 0.00572176)
(0.0057222 -0.00266082 -0 0.00572219 -0 0.00572219)
(0.00572242 -0.00266092 -0 0.0057224 -0 0.00572241)
(0.00576098 -0.00267886 -0 0.00576099 -0 0.00576098)
(0.00576076 -0.00267876 -0 0.00576078 -0 0.00576077)
(0.00576116 -0.00267894 -0 0.00576115 -0 0.00576116)
(0.00576131 -0.002679 -0 0.00576129 -0 0.0057613)
(0.00578948 -0.00269211 -0 0.00578949 -0 0.00578949)
(0.00578931 -0.00269203 -0 0.00578933 -0 0.00578932)
(0.00578966 -0.00269219 -0 0.00578966 -0 0.00578966)
(0.00578974 -0.00269222 -0 0.00578972 -0 0.00578973)
(0.0058091 -0.00270123 -0 0.00580911 -0 0.0058091)
(0.00580897 -0.00270118 -0 0.00580899 -0 0.00580898)
(0.00580928 -0.00270131 -0 0.00580927 -0 0.00580928)
(0.00580929 -0.00270131 -0 0.00580927 -0 0.00580928)
(0.00582108 -0.0027068 -0 0.00582108 -0 0.00582108)
(0.005821 -0.00270677 -0 0.00582102 -0 0.00582101)
(0.00582126 -0.00270689 -0 0.00582126 -0 0.00582126)
(0.00582121 -0.00270686 -0 0.00582119 -0 0.0058212)
(0.00582643 -0.00270929 -0 0.00582644 -0 0.00582643)
(0.00582639 -0.00270928 -0 0.00582641 -0 0.0058264)
(0.00582662 -0.00270937 -0 0.00582661 -0 0.00582661)
(0.0058265 -0.00270932 -0 0.00582648 -0 0.00582649)
(0.00582596 -0.00270907 -0 0.00582597 -0 0.00582597)
(0.00582596 -0.00270907 -0 0.00582598 -0 0.00582597)
(0.00582615 -0.00270916 -0 0.00582614 -0 0.00582615)
(0.00582597 -0.00270907 -0 0.00582595 -0 0.00582596)
(0.00582034 -0.00270646 -0 0.00582035 -0 0.00582034)
(0.00582036 -0.00270647 -0 0.00582038 -0 0.00582037)
(0.00582053 -0.00270655 -0 0.00582053 -0 0.00582053)
(0.0058203 -0.00270644 -0 0.00582028 -0 0.00582029)
(0.00581011 -0.0027017 -0 0.00581012 -0 0.00581012)
(0.00581016 -0.00270173 -0 0.00581018 -0 0.00581017)
(0.00581031 -0.00270179 -0 0.0058103 -0 0.0058103)
(0.00581003 -0.00270166 -0 0.00581001 -0 0.00581002)
(0.00579573 -0.00269502 -0 0.00579574 -0 0.00579573)
(0.0057958 -0.00269505 -0 0.00579582 -0 0.00579581)
(0.00579593 -0.00269511 -0 0.00579593 -0 0.00579593)
(0.00579561 -0.00269496 -0 0.0057956 -0 0.00579561)
(0.00577758 -0.00268658 -0 0.00577759 -0 0.00577759)
(0.00577768 -0.00268662 -0 0.00577769 -0 0.00577769)
(0.00577779 -0.00268667 -0 0.00577778 -0 0.00577779)
(0.00577744 -0.00268651 -0 0.00577742 -0 0.00577743)
(0.00575599 -0.00267654 -0 0.005756 -0 0.00575599)
(0.00575611 -0.00267659 -0 0.00575612 -0 0.00575611)
(0.0057562 -0.00267663 -0 0.0057562 -0 0.0057562)
(0.00575583 -0.00267646 -0 0.00575581 -0 0.00575582)
(0.00573124 -0.00266503 -0 0.00573124 -0 0.00573124)
(0.00573137 -0.00266509 -0 0.00573138 -0 0.00573137)
(0.00573145 -0.00266512 -0 0.00573145 -0 0.00573145)
(0.00573106 -0.00266494 -0 0.00573105 -0 0.00573105)
(0.00570355 -0.00265215 -0 0.00570356 -0 0.00570356)
(0.0057037 -0.00265222 -0 0.00570371 -0 0.00570371)
(0.00570377 -0.00265225 -0 0.00570377 -0 0.00570377)
(0.00570337 -0.00265206 -0 0.00570336 -0 0.00570336)
(0.00567315 -0.00263802 -0 0.00567315 -0 0.00567315)
(0.00567331 -0.00263809 -0 0.00567332 -0 0.00567332)
(0.00567337 -0.00263812 -0 0.00567337 -0 0.00567337)
(0.00567296 -0.00263793 -0 0.00567295 -0 0.00567296)
(0.00564021 -0.0026227 -0 0.00564021 -0 0.00564021)
(0.00564038 -0.00262278 -0 0.00564039 -0 0.00564039)
(0.00564044 -0.0026228 -0 0.00564043 -0 0.00564043)
(0.00564003 -0.00262261 -0 0.00564002 -0 0.00564002)
(0.00560489 -0.00260627 -0 0.00560489 -0 0.00560489)
(0.00560507 -0.00260636 -0 0.00560507 -0 0.00560507)
(0.00560511 -0.00260638 -0 0.00560511 -0 0.00560511)
(0.00560471 -0.00260619 -0 0.0056047 -0 0.0056047)
(0.00556732 -0.0025888 -0 0.00556732 -0 0.00556732)
(0.0055675 -0.00258889 -0 0.00556751 -0 0.00556751)
(0.00556754 -0.00258891 -0 0.00556754 -0 0.00556754)
(0.00556715 -0.00258872 -0 0.00556714 -0 0.00556715)
(0.00552763 -0.00257035 -0 0.00552764 -0 0.00552763)
(0.00552782 -0.00257044 -0 0.00552783 -0 0.00552782)
(0.00552785 -0.00257045 -0 0.00552785 -0 0.00552785)
(0.00552747 -0.00257027 -0 0.00552747 -0 0.00552747)
(0.00548593 -0.00255096 -0 0.00548594 -0 0.00548594)
(0.00548612 -0.00255105 -0 0.00548613 -0 0.00548613)
(0.00548615 -0.00255106 -0 0.00548615 -0 0.00548615)
(0.00548578 -0.00255089 -0 0.00548578 -0 0.00548578)
(0.00544233 -0.00253068 -0 0.00544233 -0 0.00544233)
(0.00544252 -0.00253077 -0 0.00544252 -0 0.00544252)
(0.00544254 -0.00253078 -0 0.00544254 -0 0.00544254)
(0.00544219 -0.00253062 -0 0.00544219 -0 0.00544219)
(0.00539691 -0.00250957 -0 0.00539692 -0 0.00539692)
(0.0053971 -0.00250965 -0 0.0053971 -0 0.0053971)
(0.00539712 -0.00250966 -0 0.00539711 -0 0.00539712)
(0.00539679 -0.00250951 -0 0.00539679 -0 0.00539679)
(0.00534979 -0.00248765 -0 0.00534979 -0 0.00534979)
(0.00534997 -0.00248774 -0 0.00534997 -0 0.00534997)
(0.00534998 -0.00248774 -0 0.00534998 -0 0.00534998)
(0.00534967 -0.0024876 -0 0.00534967 -0 0.00534967)
(0.00530105 -0.00246499 -0 0.00530105 -0 0.00530105)
(0.00530122 -0.00246507 -0 0.00530122 -0 0.00530122)
(0.00530123 -0.00246507 -0 0.00530122 -0 0.00530122)
(0.00530094 -0.00246494 -0 0.00530094 -0 0.00530094)
(0.00525081 -0.00244163 -0 0.00525081 -0 0.00525081)
(0.00525097 -0.0024417 -0 0.00525097 -0 0.00525097)
(0.00525097 -0.0024417 -0 0.00525097 -0 0.00525097)
(0.00525072 -0.00244158 -0 0.00525071 -0 0.00525071)
(0.0051992 -0.00241763 -0 0.0051992 -0 0.0051992)
(0.00519935 -0.0024177 -0 0.00519935 -0 0.00519935)
(0.00519935 -0.00241769 -0 0.00519934 -0 0.00519934)
(0.00519911 -0.00241759 -0 0.00519911 -0 0.00519911)
(0.00514636 -0.00239306 -0 0.00514637 -0 0.00514636)
(0.00514649 -0.00239312 -0 0.0051465 -0 0.0051465)
(0.00514649 -0.00239312 -0 0.00514648 -0 0.00514649)
(0.00514629 -0.00239302 -0 0.00514628 -0 0.00514628)
(0.00509245 -0.002368 -0 0.00509248 -0 0.00509246)
(0.00509258 -0.00236805 -0 0.00509259 -0 0.00509259)
(0.00509258 -0.00236805 -0 0.00509256 -0 0.00509257)
(0.0050924 -0.00236796 -0 0.00509239 -0 0.00509239)
(0.00503766 -0.00234252 -0 0.00503769 -0 0.00503768)
(0.00503778 -0.00234257 -0 0.00503778 -0 0.00503778)
(0.00503778 -0.00234256 -0 0.00503775 -0 0.00503777)
(0.00503762 -0.00234249 -0 0.00503762 -0 0.00503762)
(0.00498213 -0.0023167 -0 0.00498218 -0 0.00498216)
(0.00498225 -0.00231674 -0 0.00498223 -0 0.00498224)
(0.00498226 -0.00231674 -0 0.00498221 -0 0.00498224)
(0.0049821 -0.00231668 -0 0.00498212 -0 0.00498211)
(0.00492598 -0.00229059 -0 0.00492604 -0 0.00492601)
(0.00492609 -0.00229063 -0 0.00492606 -0 0.00492608)
(0.00492611 -0.00229063 -0 0.00492605 -0 0.00492608)
(0.00492596 -0.00229058 -0 0.00492598 -0 0.00492597)
(0.00486919 -0.00226258 -0 0.00486925 -0 0.00486922)
(0.00486929 -0.00226254 -0 0.00486926 -0 0.00486927)
(0.0048693 -0.00226215 -0 0.00486924 -0 0.00486927)
(0.00486917 -0.00226237 -0 0.0048692 -0 0.00486918)
(0.00481163 -0.00223133 -0 0.00481168 -0 0.00481166)
(0.00481171 -0.00223126 -0 0.00481169 -0 0.0048117)
(0.00481172 -0.00223099 -0 0.00481166 -0 0.00481169)
(0.00481161 -0.00223123 -0 0.00481163 -0 0.00481162)
(0.00475322 -0.00220142 -0 0.00475327 -0 0.00475325)
(0.00475329 -0.00220133 -0 0.00475327 -0 0.00475328)
(0.00475329 -0.002201 -0 0.00475324 -0 0.00475326)
(0.0047532 -0.00220131 -0 0.00475321 -0 0.0047532)
(0.00469396 -0.00217091 -0 0.00469401 -0 0.00469398)
(0.00469401 -0.00217079 -0 0.004694 -0 0.00469401)
(0.004694 -0.00217042 -0 0.00469396 -0 0.00469398)
(0.00469393 -0.00217078 -0 0.00469394 -0 0.00469394)
(0.00463384 -0.00213977 -0 0.00463388 -0 0.00463386)
(0.00463388 -0.00213963 -0 0.00463387 -0 0.00463387)
(0.00463386 -0.00213921 -0 0.00463382 -0 0.00463384)
(0.0046338 -0.00213963 -0 0.00463381 -0 0.00463381)
(0.00457285 -0.00210798 -0 0.00457288 -0 0.00457286)
(0.00457287 -0.00210782 -0 0.00457287 -0 0.00457287)
(0.00457284 -0.00210737 -0 0.00457281 -0 0.00457283)
(0.0045728 -0.00210782 -0 0.00457281 -0 0.00457281)
(0.00451097 -0.0020756 -0 0.004511 -0 0.00451099)
(0.00451099 -0.00207541 -0 0.00451099 -0 0.00451099)
(0.00451095 -0.00207495 -0 0.00451092 -0 0.00451094)
(0.00451093 -0.00207542 -0 0.00451093 -0 0.00451093)
(0.00444822 -0.00204266 -0 0.00444824 -0 0.00444823)
(0.00444823 -0.00204245 -0 0.00444823 -0 0.00444823)
(0.00444818 -0.00204197 -0 0.00444816 -0 0.00444817)
(0.00444817 -0.00204247 -0 0.00444817 -0 0.00444817)
(0.00438459 -0.00200912 -0 0.0043846 -0 0.00438459)
(0.0043846 -0.00200889 -0 0.00438459 -0 0.00438459)
(0.00438453 -0.00200841 -0 0.00438452 -0 0.00438452)
(0.00438453 -0.00200891 -0 0.00438453 -0 0.00438453)
(0.00432007 -0.00197498 -0 0.00432008 -0 0.00432007)
(0.00432008 -0.00197473 -0 0.00432007 -0 0.00432007)
(0.00432 -0.00197426 -0 0.00432 -0 0.00432)
(0.00432001 -0.00197477 -0 0.00432001 -0 0.00432001)
(0.00425468 -0.00194024 -0 0.00425467 -0 0.00425467)
(0.00425467 -0.00193998 -0 0.00425467 -0 0.00425467)
(0.00425459 -0.00193954 -0 0.00425459 -0 0.00425459)
(0.0042546 -0.00194004 -0 0.0042546 -0 0.0042546)
(0.0041884 -0.00190491 -0 0.00418838 -0 0.00418839)
(0.00418839 -0.00190463 -0 0.00418839 -0 0.00418839)
(0.0041883 -0.00190422 -0 0.00418831 -0 0.00418831)
(0.00418832 -0.00190472 -0 0.00418832 -0 0.00418832)
(0.00412124 -0.00186896 -0 0.00412122 -0 0.00412123)
(0.00412123 -0.00186868 -0 0.00412123 -0 0.00412123)
(0.00412113 -0.00186832 -0 0.00412116 -0 0.00412115)
(0.00412116 -0.0018688 -0 0.00412116 -0 0.00412116)
(0.00405321 -0.00183239 -0 0.00405318 -0 0.00405319)
(0.00405319 -0.00183212 -0 0.00405319 -0 0.00405319)
(0.00405309 -0.0018318 -0 0.00405312 -0 0.00405311)
(0.00405312 -0.00183226 -0 0.00405312 -0 0.00405312)
(0.0039843 -0.00179522 -0 0.00398427 -0 0.00398428)
(0.00398428 -0.00179496 -0 0.00398428 -0 0.00398428)
(0.00398418 -0.00179469 -0 0.00398421 -0 0.0039842)
(0.00398421 -0.00179514 -0 0.00398421 -0 0.00398421)
(0.00391453 -0.00175745 -0 0.00391449 -0 0.00391451)
(0.0039145 -0.00175722 -0 0.00391451 -0 0.0039145)
(0.00391441 -0.001757 -0 0.00391444 -0 0.00391442)
(0.00391444 -0.00175743 -0 0.00391444 -0 0.00391444)
(0.0038439 -0.00171907 -0 0.00384386 -0 0.00384388)
(0.00384387 -0.00171887 -0 0.00384388 -0 0.00384387)
(0.00384378 -0.00171869 -0 0.00384381 -0 0.0038438)
(0.00384382 -0.00171911 -0 0.00384381 -0 0.00384381)
(0.00377242 -0.00168007 -0 0.00377238 -0 0.0037724)
(0.00377239 -0.00167991 -0 0.0037724 -0 0.00377239)
(0.00377231 -0.00167977 -0 0.00377234 -0 0.00377233)
(0.00377235 -0.00168018 -0 0.00377234 -0 0.00377234)
(0.00370011 -0.00164045 -0 0.00370008 -0 0.00370009)
(0.00370008 -0.00164034 -0 0.00370009 -0 0.00370009)
(0.00370001 -0.00164023 -0 0.00370004 -0 0.00370002)
(0.00370005 -0.00164064 -0 0.00370004 -0 0.00370004)
(0.00362699 -0.00160022 -0 0.00362696 -0 0.00362697)
(0.00362696 -0.00160016 -0 0.00362697 -0 0.00362696)
(0.00362689 -0.00160006 -0 0.00362692 -0 0.00362691)
(0.00362693 -0.00160047 -0 0.00362693 -0 0.00362693)
(0.00355306 -0.00155936 -0 0.00355304 -0 0.00355305)
(0.00355304 -0.00155935 -0 0.00355305 -0 0.00355305)
(0.00355298 -0.00155927 -0 0.00355301 -0 0.00355299)
(0.00355302 -0.00155969 -0 0.00355302 -0 0.00355302)
(0.00347837 -0.00151788 -0 0.00347835 -0 0.00347836)
(0.00347836 -0.0015179 -0 0.00347836 -0 0.00347836)
(0.0034783 -0.00151784 -0 0.00347832 -0 0.00347831)
(0.00347834 -0.00151827 -0 0.00347834 -0 0.00347834)
(0.00340293 -0.00147576 -0 0.00340292 -0 0.00340292)
(0.00340292 -0.00147582 -0 0.00340292 -0 0.00340292)
(0.00340287 -0.00147578 -0 0.00340289 -0 0.00340288)
(0.00340291 -0.00147622 -0 0.00340292 -0 0.00340292)
(0.00332679 -0.00143305 -0 0.00332677 -0 0.00332678)
(0.00332678 -0.00143306 -0 0.00332678 -0 0.00332678)
(0.00332673 -0.00143309 -0 0.00332675 -0 0.00332674)
(0.00332677 -0.00143353 -0 0.00332678 -0 0.00332678)
(0.00324997 -0.00138963 -0 0.00324996 -0 0.00324996)
(0.00324997 -0.00138975 -0 0.00324996 -0 0.00324996)
(0.00324992 -0.00138972 -0 0.00324993 -0 0.00324993)
(0.00324996 -0.00139021 -0 0.00324997 -0 0.00324997)
(0.00317253 -0.00134564 -0 0.00317253 -0 0.00317253)
(0.00317253 -0.00134568 -0 0.00317252 -0 0.00317253)
(0.00317249 -0.00134574 -0 0.0031725 -0 0.00317249)
(0.00317253 -0.00134623 -0 0.00317254 -0 0.00317253)
(0.00309454 -0.00130095 -0 0.00309453 -0 0.00309453)
(0.00309453 -0.00130103 -0 0.00309452 -0 0.00309453)
(0.00309449 -0.00130108 -0 0.0030945 -0 0.0030945)
(0.00309453 -0.00130161 -0 0.00309454 -0 0.00309454)
(0.00301605 -0.00125563 -0 0.00301604 -0 0.00301605)
(0.00301604 -0.00125575 -0 0.00301603 -0 0.00301604)
(0.003016 -0.00125574 -0 0.00301601 -0 0.003016)
(0.00301604 -0.00125634 -0 0.00301605 -0 0.00301605)
(0.00293715 -0.00120961 -0 0.00293715 -0 0.00293715)
(0.00293714 -0.00120978 -0 0.00293714 -0 0.00293714)
(0.0029371 -0.00120975 -0 0.00293711 -0 0.00293711)
(0.00293715 -0.00121042 -0 0.00293716 -0 0.00293715)
(0.00285796 -0.00116298 -0 0.00285795 -0 0.00285795)
(0.00285795 -0.00116314 -0 0.00285794 -0 0.00285794)
(0.0028579 -0.00116313 -0 0.00285791 -0 0.0028579)
(0.00285796 -0.00116382 -0 0.00285796 -0 0.00285796)
(0.00277858 -0.00111567 -0 0.00277857 -0 0.00277858)
(0.00277857 -0.00111584 -0 0.00277856 -0 0.00277857)
(0.00277852 -0.00111584 -0 0.00277853 -0 0.00277852)
(0.00277858 -0.00111656 -0 0.00277859 -0 0.00277859)
(0.00269917 -0.0010677 -0 0.00269917 -0 0.00269917)
(0.00269917 -0.00106788 -0 0.00269916 -0 0.00269916)
(0.00269911 -0.00106791 -0 0.00269912 -0 0.00269911)
(0.00269918 -0.00106862 -0 0.00269919 -0 0.00269918)
(0.00261992 -0.00101914 -0 0.00261991 -0 0.00261991)
(0.00261991 -0.00101916 -0 0.0026199 -0 0.0026199)
(0.00261985 -0.00101935 -0 0.00261986 -0 0.00261986)
(0.00261992 -0.00102001 -0 0.00261993 -0 0.00261993)
(0.00254101 -0.000969813 -0 0.002541 -0 0.00254101)
(0.002541 -0.000969967 -0 0.00254099 -0 0.002541)
(0.00254095 -0.000970042 -0 0.00254096 -0 0.00254095)
(0.00254102 -0.000970752 -0 0.00254103 -0 0.00254102)
(0.0024627 -0.000919861 -0 0.00246269 -0 0.0024627)
(0.00246269 -0.000919983 -0 0.00246268 -0 0.00246269)
(0.00246264 -0.000920123 -0 0.00246265 -0 0.00246264)
(0.0024627 -0.00092083 -0 0.00246272 -0 0.00246271)
(0.00238526 -0.000869257 -0 0.00238525 -0 0.00238525)
(0.00238525 -0.000869272 -0 0.00238523 -0 0.00238524)
(0.00238519 -0.00086955 -0 0.0023852 -0 0.0023852)
(0.00238526 -0.000870253 -0 0.00238527 -0 0.00238527)
(0.00230899 -0.000817974 -0 0.00230899 -0 0.00230899)
(0.00230897 -0.000818013 -0 0.00230896 -0 0.00230897)
(0.00230893 -0.000818282 -0 0.00230894 -0 0.00230894)
(0.002309 -0.000819018 -0 0.00230901 -0 0.002309)
(0.00223426 -0.000766046 -0 0.00223426 -0 0.00223426)
(0.00223424 -0.000766062 -0 0.00223423 -0 0.00223423)
(0.0022342 -0.000766327 -0 0.0022342 -0 0.0022342)
(0.00223427 -0.000767139 -0 0.00223428 -0 0.00223428)
(0.00216145 -0.00071337 -0 0.00216145 -0 0.00216145)
(0.00216143 -0.000713574 -0 0.00216143 -0 0.00216143)
(0.00216139 -0.000713663 -0 0.00216139 -0 0.00216139)
(0.00216147 -0.000714606 -0 0.00216148 -0 0.00216148)
(0.002091 -0.000660272 -0 0.00209101 -0 0.002091)
(0.00209098 -0.000660276 -0 0.00209098 -0 0.00209098)
(0.00209093 -0.000660492 -0 0.00209093 -0 0.00209093)
(0.00209103 -0.000661357 -0 0.00209103 -0 0.00209103)
(0.00202339 -0.000606366 -0 0.00202339 -0 0.00202339)
(0.00202336 -0.000606334 -0 0.00202336 -0 0.00202336)
(0.00202331 -0.000606712 -0 0.0020233 -0 0.00202331)
(0.00202342 -0.000607439 -0 0.00202341 -0 0.00202341)
(0.0019591 -0.000551891 -0 0.00195911 -0 0.0019591)
(0.00195907 -0.000551921 -0 0.00195908 -0 0.00195907)
(0.00195902 -0.000552097 -0 0.00195901 -0 0.00195902)
(0.00195913 -0.000552906 -0 0.00195912 -0 0.00195913)
(0.00189869 -0.000496756 -0 0.0018987 -0 0.0018987)
(0.00189865 -0.000496694 -0 0.00189867 -0 0.00189866)
(0.00189862 -0.000497079 -0 0.00189861 -0 0.00189861)
(0.00189873 -0.000497642 -0 0.00189871 -0 0.00189872)
(0.00184273 -0.000440974 -0 0.00184275 -0 0.00184274)
(0.00184269 -0.000440929 -0 0.00184271 -0 0.0018427)
(0.00184267 -0.000441257 -0 0.00184265 -0 0.00184266)
(0.00184277 -0.000441762 -0 0.00184275 -0 0.00184276)
(0.00179181 -0.000384535 -0 0.00179182 -0 0.00179182)
(0.00179176 -0.000384485 -0 0.00179178 -0 0.00179177)
(0.00179175 -0.000384787 -0 0.00179174 -0 0.00179174)
(0.00179184 -0.00038522 -0 0.00179182 -0 0.00179183)
(0.00174652 -0.000327422 -0 0.00174654 -0 0.00174653)
(0.00174648 -0.00032737 -0 0.00174649 -0 0.00174649)
(0.00174647 -0.000327631 -0 0.00174646 -0 0.00174647)
(0.00174656 -0.000328005 -0 0.00174654 -0 0.00174655)
(0.00170748 -0.000269613 -0 0.0017075 -0 0.00170749)
(0.00170743 -0.000269561 -0 0.00170745 -0 0.00170744)
(0.00170743 -0.00026977 -0 0.00170741 -0 0.00170742)
(0.00170751 -0.000270094 -0 0.00170749 -0 0.0017075)
(0.00167525 -0.000211077 -0 0.00167527 -0 0.00167526)
(0.00167521 -0.000211029 -0 0.00167523 -0 0.00167522)
(0.00167521 -0.000211179 -0 0.00167519 -0 0.0016752)
(0.00167529 -0.000211456 -0 0.00167527 -0 0.00167528)
(0.0016504 -0.000151782 -0 0.00165042 -0 0.00165041)
(0.00165037 -0.000151763 -0 0.00165039 -0 0.00165038)
(0.00165035 -0.000151831 -0 0.00165034 -0 0.00165034)
(0.00165043 -0.000152056 -0 0.00165041 -0 0.00165042)
(0.00163342 -9.16927e-05 -0 0.00163343 -0 0.00163343)
(0.00163339 -9.16822e-05 -0 0.00163341 -0 0.0016334)
(0.00163337 -9.17333e-05 -0 0.00163335 -0 0.00163336)
(0.00163345 -9.18547e-05 -0 0.00163343 -0 0.00163344)
(0.00162474 -3.07276e-05 -0 0.00162476 -0 0.00162475)
(0.00162471 -3.07189e-05 -0 0.00162473 -0 0.00162472)
(0.00162469 -3.07405e-05 -0 0.00162468 -0 0.00162469)
(0.00162477 -3.07832e-05 -0 0.00162475 -0 0.00162476)
)
;

boundaryField
{
    inlet
    {
        type            cyclic;
    }
    outlet
    {
        type            cyclic;
    }
    fixedWalls-bottom
    {
        type            kqRWallFunction;
        value           nonuniform List<symmTensor> 4((6.12664e-07 -0 -0 6.12664e-07 -0 6.12664e-07) (6.12396e-07 -0 -0 6.12396e-07 -0 6.12396e-07) (6.12384e-07 -0 -0 6.12384e-07 -0 6.12384e-07) (6.12459e-07 -0 -0 6.12459e-07 -0 6.12459e-07));
    }
    fixedWalls-top
    {
        type            symmetry;
    }
    frontAndBack
    {
        type            empty;
    }
}


// ************************************************************************* //
