/*--------------------------------*- C++ -*----------------------------------*\
  =========                 |
  \\      /  F ield         | OpenFOAM: The Open Source CFD Toolbox
   \\    /   O peration     | Website:  https://openfoam.org
    \\  /    A nd           | Version:  10
     \\/     M anipulation  |
\*---------------------------------------------------------------------------*/
FoamFile
{
    format      ascii;
    class       volScalarField;
    location    "2500";
    object      omega;
}
// * * * * * * * * * * * * * * * * * * * * * * * * * * * * * * * * * * * * * //

dimensions      [0 0 -1 0 0 0 0];

internalField   nonuniform List<scalar> 
400
(
49172.6
49172.6
49172.6
49172.6
8063.69
8063.69
8063.69
8063.69
2659.11
2659.11
2659.11
2659.11
1236.68
1236.68
1236.68
1236.68
696.97
696.967
696.963
696.963
443.324
443.318
443.311
443.312
306.12
306.111
306.105
306.106
223.894
223.883
223.879
223.879
170.691
170.68
170.677
170.677
134.206
134.197
134.195
134.195
108.041
108.033
108.031
108.032
88.6315
88.6243
88.6234
88.6239
73.8758
73.8692
73.8682
73.8688
62.444
62.4375
62.4362
62.4369
53.4466
53.4399
53.4382
53.4389
46.2681
46.261
46.2586
46.2595
40.4723
40.4644
40.4615
40.4624
35.7437
35.7349
35.7313
35.7323
31.8498
31.8401
31.8357
31.8367
28.6165
28.6057
28.6005
28.6016
25.9112
25.8995
25.8935
25.8946
23.632
23.6194
23.6124
23.6135
21.699
21.6857
21.6777
21.6786
20.0495
20.0355
20.0266
20.0273
18.6335
18.619
18.6091
18.6093
17.4108
17.3961
17.3851
17.3848
16.3491
16.3345
16.3224
16.3214
15.4223
15.4079
15.3948
15.393
14.6089
14.595
14.5812
14.5782
13.8913
13.8783
13.8638
13.8594
13.2553
13.2434
13.2285
13.2223
12.6888
12.6782
12.6631
12.6549
12.182
12.1727
12.1577
12.1473
11.7267
11.7186
11.704
11.6913
11.316
11.309
11.2949
11.2798
10.9439
10.9378
10.9247
10.9072
10.6055
10.6002
10.588
10.5682
10.2966
10.2919
10.2806
10.2588
10.0133
10.0092
9.99851
9.9752
9.75257
9.74884
9.73865
9.7141
9.51144
9.50803
9.49821
9.47262
9.28737
9.2842
9.27467
9.24816
9.07802
9.07504
9.06573
9.03839
8.88122
8.8784
8.86923
8.84111
8.69489
8.69219
8.68309
8.65425
8.51699
8.51438
8.50528
8.47575
8.34558
8.34303
8.33387
8.30367
8.17903
8.17652
8.16725
8.13638
8.0161
8.01363
8.0042
7.97265
7.85582
7.85342
7.84377
7.81151
7.69726
7.69502
7.68501
7.65204
7.53954
7.53754
7.52709
7.49341
7.38213
7.38041
7.36956
7.3351
7.22517
7.2237
7.21258
7.17726
7.06946
7.06842
7.0567
7.02065
6.91606
6.91561
6.90285
6.86629
6.76578
6.76523
6.75215
6.71506
6.61855
6.61811
6.60535
6.56751
6.47585
6.47579
6.46196
6.42406
6.33755
6.33678
6.32286
6.28465
6.20243
6.20184
6.18796
6.14909
6.07039
6.07041
6.05684
6.01728
5.94133
5.94187
5.92925
5.88898
5.81611
5.81777
5.80402
5.76401
5.69427
5.6965
5.68154
5.64201
5.57556
5.57692
5.56181
5.5227
5.45956
5.45939
5.44455
5.40582
5.34475
5.34417
5.32954
5.29099
5.23131
5.23092
5.21647
5.1781
5.11938
5.11946
5.10517
5.06699
5.00907
5.00962
4.99548
4.95753
4.9004
4.90123
4.88718
4.84962
4.7933
4.79417
4.78022
4.74315
4.68775
4.68829
4.67461
4.63799
4.5838
4.58332
4.57065
4.534
4.4819
4.47847
4.46925
4.43107
4.3837
4.37135
4.37117
4.32932
4.28286
4.27083
4.27054
4.22999
4.18245
4.17329
4.17248
4.13161
4.08053
4.07815
4.07232
4.03611
3.9855
3.98399
3.97335
3.94236
3.89334
3.88382
3.88154
3.84919
3.80212
3.7909
3.78956
3.75758
3.71231
3.70039
3.69931
3.6678
3.62414
3.61208
3.61106
3.57994
3.53781
3.52602
3.525
3.49415
3.45351
3.44241
3.44124
3.41055
3.37151
3.36169
3.3599
3.32925
3.29221
3.28467
3.281
3.2503
3.21651
3.21307
3.20473
3.1736
3.1467
3.13456
3.13636
3.09945
3.07429
3.06658
3.06273
3.03112
3.00188
3.00606
2.9891
2.96745
2.9394
2.9436
2.92535
2.90665
2.88208
2.88623
2.86793
2.85007
2.83041
2.83465
2.81701
2.79844
2.78524
2.78924
2.77372
2.75251
2.74769
2.74942
2.73785
2.71335
2.7191
2.71019
2.70678
2.68303
2.69955
2.68597
2.68316
2.65987
)
;

boundaryField
{
    inlet
    {
        type            cyclic;
    }
    outlet
    {
        type            cyclic;
    }
    fixedWalls-bottom
    {
        beta1           0.075;
        blended         0;
        type            omegaWallFunction;
        value           uniform 49172.6;
    }
    fixedWalls-top
    {
        type            symmetry;
    }
    frontAndBack
    {
        type            empty;
    }
}


// ************************************************************************* //
