/*--------------------------------*- C++ -*----------------------------------*\
  =========                 |
  \\      /  F ield         | OpenFOAM: The Open Source CFD Toolbox
   \\    /   O peration     | Website:  https://openfoam.org
    \\  /    A nd           | Version:  10
     \\/     M anipulation  |
\*---------------------------------------------------------------------------*/
FoamFile
{
    format      ascii;
    class       volScalarField;
    location    "142";
    object      k;
}
// * * * * * * * * * * * * * * * * * * * * * * * * * * * * * * * * * * * * * //

dimensions      [0 2 -2 0 0 0 0];

internalField   nonuniform List<scalar> 
200
(
2.22045e-16
2.22045e-16
2.22045e-16
2.22045e-16
1.09417e-15
1.09468e-15
1.09259e-15
1.09269e-15
7.59317e-15
7.59673e-15
7.58243e-15
7.58305e-15
2.71971e-14
2.721e-14
2.71593e-14
2.71614e-14
6.98806e-14
6.99147e-14
6.97836e-14
6.9789e-14
1.47721e-13
1.47795e-13
1.47517e-13
1.47529e-13
2.74534e-13
2.74676e-13
2.7416e-13
2.74183e-13
4.65634e-13
4.65886e-13
4.65006e-13
4.65051e-13
7.37533e-13
7.37954e-13
7.36549e-13
7.36635e-13
1.10759e-12
1.10826e-12
1.10612e-12
1.10628e-12
1.59359e-12
1.59463e-12
1.59145e-12
1.59177e-12
2.21323e-12
2.21478e-12
2.21017e-12
2.2108e-12
2.98359e-12
2.9858e-12
2.97921e-12
2.98042e-12
3.92042e-12
3.92345e-12
3.91408e-12
3.91643e-12
5.03758e-12
5.04143e-12
5.02816e-12
5.0327e-12
6.34599e-12
6.35059e-12
6.3318e-12
6.34016e-12
7.85288e-12
7.85811e-12
7.83151e-12
7.84614e-12
9.56102e-12
9.56672e-12
9.52913e-12
9.55355e-12
1.1468e-11
1.1474e-11
1.14211e-11
1.14602e-11
1.35654e-11
1.35715e-11
1.3498e-11
1.35584e-11
1.58387e-11
1.5845e-11
1.57441e-11
1.58336e-11
1.82652e-11
1.82734e-11
1.81377e-11
1.82576e-11
2.08122e-11
2.08242e-11
2.06508e-11
2.08041e-11
2.34452e-11
2.34629e-11
2.32494e-11
2.34378e-11
2.61243e-11
2.61494e-11
2.58947e-11
2.61184e-11
2.88055e-11
2.88397e-11
2.85439e-11
2.88015e-11
3.14418e-11
3.14869e-11
3.11513e-11
3.14403e-11
3.39851e-11
3.40424e-11
3.36697e-11
3.39862e-11
3.63865e-11
3.64572e-11
3.60512e-11
3.63908e-11
3.85979e-11
3.86832e-11
3.82488e-11
3.86063e-11
4.05725e-11
4.06739e-11
4.02173e-11
4.05866e-11
4.22672e-11
4.23849e-11
4.1914e-11
4.22882e-11
4.36441e-11
4.37748e-11
4.33005e-11
4.36708e-11
4.46723e-11
4.48067e-11
4.43432e-11
4.46999e-11
4.53308e-11
4.5448e-11
4.50176e-11
4.53509e-11
4.56125e-11
4.56847e-11
4.53062e-11
4.56218e-11
4.55288e-11
4.5543e-11
4.51994e-11
4.55692e-11
4.51073e-11
4.50304e-11
4.47042e-11
4.52733e-11
4.44477e-11
4.41609e-11
4.38383e-11
4.44609e-11
4.34784e-11
4.29597e-11
4.2631e-11
4.32287e-11
4.20571e-11
4.14883e-11
4.11246e-11
4.16491e-11
4.02421e-11
3.9798e-11
3.93693e-11
3.97651e-11
3.79347e-11
3.79381e-11
3.7426e-11
3.7709e-11
3.56879e-11
3.60591e-11
3.53594e-11
3.55621e-11
3.35048e-11
3.4097e-11
3.32672e-11
3.34164e-11
3.1445e-11
3.21029e-11
3.12568e-11
3.1377e-11
2.959e-11
3.02116e-11
2.943e-11
2.95922e-11
2.80255e-11
2.8608e-11
2.78864e-11
2.82573e-11
2.68687e-11
2.74026e-11
2.67237e-11
2.72747e-11
2.61517e-11
2.66991e-11
2.60308e-11
2.66299e-11
)
;

boundaryField
{
    inlet
    {
        type            cyclic;
    }
    outlet
    {
        type            cyclic;
    }
    fixedWalls-bottom
    {
        type            kqRWallFunction;
        value           uniform 2.22045e-16;
    }
    fixedWalls-top
    {
        type            symmetry;
    }
    frontAndBack
    {
        type            empty;
    }
}


// ************************************************************************* //
