/*--------------------------------*- C++ -*----------------------------------*\
  =========                 |
  \\      /  F ield         | OpenFOAM: The Open Source CFD Toolbox
   \\    /   O peration     | Website:  https://openfoam.org
    \\  /    A nd           | Version:  10
     \\/     M anipulation  |
\*---------------------------------------------------------------------------*/
FoamFile
{
    format      ascii;
    class       volScalarField;
    location    "142";
    object      nut;
}
// * * * * * * * * * * * * * * * * * * * * * * * * * * * * * * * * * * * * * //

dimensions      [0 2 -1 0 0 0 0];

internalField   nonuniform List<scalar> 
200
(
8.13225e-21
8.13225e-21
8.13225e-21
8.13225e-21
2.46442e-19
2.46556e-19
2.46087e-19
2.46108e-19
5.24076e-18
5.2432e-18
5.23345e-18
5.23387e-18
4.03231e-17
4.03417e-17
4.02707e-17
4.02736e-17
1.83558e-16
1.83647e-16
1.83318e-16
1.83331e-16
6.15352e-16
6.15667e-16
6.14553e-16
6.14599e-16
1.68338e-15
1.68429e-15
1.68122e-15
1.68136e-15
3.98439e-15
3.9867e-15
3.97938e-15
3.97975e-15
8.46056e-15
8.46583e-15
8.45014e-15
8.45109e-15
1.65055e-14
1.65167e-14
1.64857e-14
1.64881e-14
3.00714e-14
3.00935e-14
3.0036e-14
3.00421e-14
5.17626e-14
5.18042e-14
5.17028e-14
5.17178e-14
8.4897e-14
8.49714e-14
8.47996e-14
8.48362e-14
1.33513e-13
1.33639e-13
1.33356e-13
1.33444e-13
2.02299e-13
2.02496e-13
2.02041e-13
2.02247e-13
2.96422e-13
2.96712e-13
2.95988e-13
2.96442e-13
4.21257e-13
4.21663e-13
4.20517e-13
4.21455e-13
5.82042e-13
5.82589e-13
5.8077e-13
5.82594e-13
7.83487e-13
7.84195e-13
7.81304e-13
7.8467e-13
1.02939e-12
1.03026e-12
1.0257e-12
1.0316e-12
1.3223e-12
1.32334e-12
1.31628e-12
1.32608e-12
1.6632e-12
1.66451e-12
1.65397e-12
1.66858e-12
2.05108e-12
2.05284e-12
2.03819e-12
2.0587e-12
2.48376e-12
2.48613e-12
2.46678e-12
2.49424e-12
2.95758e-12
2.96076e-12
2.93628e-12
2.97155e-12
3.46772e-12
3.47214e-12
3.44203e-12
3.48587e-12
4.00846e-12
4.01471e-12
3.97863e-12
4.03151e-12
4.57399e-12
4.58196e-12
4.54001e-12
4.60219e-12
5.15766e-12
5.16713e-12
5.11962e-12
5.1911e-12
5.75234e-12
5.76303e-12
5.71043e-12
5.79108e-12
6.34931e-12
6.36279e-12
6.30476e-12
6.39442e-12
6.94054e-12
6.95926e-12
6.89429e-12
6.99306e-12
7.51762e-12
7.54097e-12
7.4732e-12
7.57777e-12
8.07256e-12
8.10955e-12
8.03093e-12
8.13906e-12
8.59929e-12
8.63843e-12
8.56037e-12
8.6709e-12
9.09074e-12
9.12383e-12
9.05258e-12
9.16701e-12
9.54204e-12
9.56318e-12
9.49902e-12
9.63293e-12
9.94953e-12
9.9463e-12
9.8912e-12
1.00818e-11
1.03204e-11
1.02971e-11
1.0211e-11
1.04436e-11
1.06503e-11
1.05715e-11
1.04787e-11
1.07188e-11
1.08793e-11
1.0786e-11
1.06778e-11
1.0913e-11
1.10018e-11
1.09403e-11
1.08065e-11
1.10204e-11
1.09664e-11
1.10337e-11
1.08659e-11
1.10592e-11
1.09069e-11
1.10883e-11
1.08553e-11
1.10307e-11
1.0812e-11
1.10569e-11
1.07864e-11
1.09378e-11
1.07028e-11
1.0916e-11
1.06904e-11
1.07944e-11
1.05459e-11
1.07563e-11
1.05562e-11
1.06543e-11
1.03922e-11
1.06213e-11
1.04054e-11
1.05892e-11
1.02756e-11
1.04578e-11
1.03039e-11
1.05546e-11
1.01926e-11
1.03936e-11
1.02385e-11
1.05286e-11
)
;

boundaryField
{
    inlet
    {
        type            cyclic;
    }
    outlet
    {
        type            cyclic;
    }
    fixedWalls-bottom
    {
        type            nutkWallFunction;
        Cmu             0.09;
        kappa           0.41;
        E               9.8;
        value           uniform 0;
    }
    fixedWalls-top
    {
        type            symmetry;
    }
    frontAndBack
    {
        type            empty;
    }
}


// ************************************************************************* //
