/*--------------------------------*- C++ -*----------------------------------*\
  =========                 |
  \\      /  F ield         | OpenFOAM: The Open Source CFD Toolbox
   \\    /   O peration     | Website:  https://openfoam.org
    \\  /    A nd           | Version:  10
     \\/     M anipulation  |
\*---------------------------------------------------------------------------*/
FoamFile
{
    format      ascii;
    class       volScalarField;
    location    "142";
    object      omega;
}
// * * * * * * * * * * * * * * * * * * * * * * * * * * * * * * * * * * * * * //

dimensions      [0 0 -1 0 0 0 0];

internalField   nonuniform List<scalar> 
200
(
27304.2
27304.2
27304.2
27304.2
4439.88
4439.88
4439.87
4439.88
1448.87
1448.87
1448.84
1448.84
674.479
674.488
674.417
674.422
380.701
380.701
380.67
380.672
240.058
240.056
240.04
240.041
163.085
163.081
163.072
163.072
116.864
116.86
116.854
116.855
87.1731
87.1686
87.164
87.1646
67.1042
67.0997
67.0956
67.096
52.9935
52.989
52.9846
52.9847
42.7574
42.7528
42.7476
42.7473
35.1436
35.1388
35.1323
35.1315
29.3636
29.3586
29.3506
29.3489
24.9016
24.8964
24.8868
24.8839
21.4086
21.4032
21.392
21.3875
18.6416
18.636
18.6235
18.6168
16.4267
16.421
16.4077
16.3983
14.6371
14.6315
14.618
14.6051
13.1781
13.1729
13.1598
13.143
11.9781
11.9735
11.9611
11.9402
10.982
10.9782
10.9662
10.942
10.1469
10.1441
10.1319
10.1054
9.43941
9.43752
9.42499
9.39679
8.83299
8.832
8.8189
8.78948
8.30674
8.30605
8.29275
8.26236
7.84386
7.8429
7.82966
7.79863
7.43007
7.42965
7.41621
7.38479
7.05485
7.05559
7.04177
7.01023
6.70995
6.7123
6.69806
6.66651
6.39006
6.39246
6.37888
6.34719
6.08991
6.09043
6.07952
6.04716
5.80558
5.80492
5.7941
5.76301
5.53385
5.52518
5.52155
5.49202
5.27145
5.26115
5.25883
5.23023
5.01747
5.00718
5.00478
4.97674
4.77139
4.76233
4.75833
4.73057
4.53361
4.52735
4.5196
4.49058
4.30676
4.28868
4.29323
4.25725
4.08235
4.06371
4.06836
4.03299
3.86579
3.84649
3.8514
3.81647
3.65777
3.63775
3.64311
3.60833
3.45916
3.4384
3.44435
3.40975
3.27204
3.25199
3.25733
3.22392
3.09886
3.08378
3.08417
3.05513
2.93801
2.9409
2.92382
2.90679
2.80583
2.80874
2.78794
2.77747
2.69679
2.69346
2.68
2.6685
2.6148
2.62031
2.59356
2.58415
2.56575
2.56881
2.54244
2.52929
)
;

boundaryField
{
    inlet
    {
        type            cyclic;
    }
    outlet
    {
        type            cyclic;
    }
    fixedWalls-bottom
    {
        beta1           0.075;
        blended         0;
        type            omegaWallFunction;
        value           nonuniform List<scalar> 4(27304.2 27304.2 27304.2 27304.2);
    }
    fixedWalls-top
    {
        type            symmetry;
    }
    frontAndBack
    {
        type            empty;
    }
}


// ************************************************************************* //
