/*--------------------------------*- C++ -*----------------------------------*\
  =========                 |
  \\      /  F ield         | OpenFOAM: The Open Source CFD Toolbox
   \\    /   O peration     | Website:  https://openfoam.org
    \\  /    A nd           | Version:  10
     \\/     M anipulation  |
\*---------------------------------------------------------------------------*/
FoamFile
{
    format      ascii;
    class       volScalarField;
    location    "142";
    object      p;
}
// * * * * * * * * * * * * * * * * * * * * * * * * * * * * * * * * * * * * * //

dimensions      [0 2 -2 0 0 0 0];

internalField   nonuniform List<scalar> 
200
(
-5.07827e-10
8.42918e-07
-8.64974e-08
-9.32376e-07
-8.17632e-10
8.414e-07
-8.63146e-08
-9.30836e-07
-1.09914e-09
8.39775e-07
-8.62333e-08
-9.2918e-07
-1.54318e-09
8.38597e-07
-8.60824e-08
-9.27982e-07
-1.76209e-09
8.37751e-07
-8.59974e-08
-9.27086e-07
-1.95477e-09
8.373e-07
-8.58671e-08
-9.2659e-07
-1.95962e-09
8.37104e-07
-8.58674e-08
-9.26326e-07
-1.97674e-09
8.37292e-07
-8.58685e-08
-9.26456e-07
-1.80395e-09
8.37716e-07
-8.60508e-08
-9.26808e-07
-1.611e-09
8.38498e-07
-8.62798e-08
-9.27524e-07
-1.18345e-09
8.39455e-07
-8.67446e-08
-9.28407e-07
-6.71608e-10
8.40685e-07
-8.73156e-08
-9.29568e-07
1.36367e-10
8.41973e-07
-8.8182e-08
-9.30781e-07
1.1068e-09
8.43366e-07
-8.92264e-08
-9.32099e-07
2.43922e-09
8.44615e-07
-9.06287e-08
-9.33273e-07
4.0123e-09
8.45705e-07
-9.22837e-08
-9.34284e-07
6.01053e-09
8.46346e-07
-9.43564e-08
-9.3485e-07
8.32475e-09
8.4643e-07
-9.67571e-08
-9.34852e-07
1.11228e-08
8.45631e-07
-9.96317e-08
-9.33977e-07
1.43064e-08
8.43741e-07
-1.02904e-07
-9.32006e-07
1.803e-08
8.40387e-07
-1.06702e-07
-9.28581e-07
2.22031e-08
8.35246e-07
-1.10964e-07
-9.2336e-07
2.69732e-08
8.27905e-07
-1.15808e-07
-9.15953e-07
3.22606e-08
8.17936e-07
-1.21183e-07
-9.0591e-07
3.82114e-08
8.04889e-07
-1.27204e-07
-8.92807e-07
4.47576e-08
7.88243e-07
-1.33835e-07
-8.76095e-07
5.20514e-08
7.67536e-07
-1.41196e-07
-8.55341e-07
6.00422e-08
7.42187e-07
-1.49268e-07
-8.29937e-07
6.88931e-08
7.11753e-07
-1.58184e-07
-7.99469e-07
7.85771e-08
6.75653e-07
-1.67944e-07
-7.63326e-07
8.92681e-08
6.3351e-07
-1.78698e-07
-7.21158e-07
1.00964e-07
5.84809e-07
-1.90465e-07
-6.72426e-07
1.13848e-07
5.29315e-07
-2.0341e-07
-6.16912e-07
1.27948e-07
4.66685e-07
-2.17576e-07
-5.54257e-07
1.43442e-07
3.96899e-07
-2.3313e-07
-4.84453e-07
1.60375e-07
3.19903e-07
-2.50126e-07
-4.07432e-07
1.78905e-07
2.36003e-07
-2.68715e-07
-3.23509e-07
1.99065e-07
1.45583e-07
-2.88936e-07
-2.3306e-07
2.20954e-07
4.93854e-08
-3.10884e-07
-1.36834e-07
2.44526e-07
-5.16079e-08
-3.34521e-07
-3.58052e-08
2.69758e-07
-1.56092e-07
-3.59814e-07
6.87073e-08
2.96422e-07
-2.62349e-07
-3.86551e-07
1.74998e-07
3.24253e-07
-3.68385e-07
-4.14451e-07
2.81052e-07
3.52737e-07
-4.71705e-07
-4.4302e-07
3.84384e-07
3.81299e-07
-5.69534e-07
-4.71667e-07
4.82203e-07
4.091e-07
-6.58447e-07
-4.99563e-07
5.7109e-07
4.34756e-07
-7.34132e-07
-5.25314e-07
6.46735e-07
4.55525e-07
-7.91221e-07
-5.46166e-07
7.0378e-07
4.67556e-07
-8.26088e-07
-5.58247e-07
7.38609e-07
4.72974e-07
-8.49626e-07
-5.63681e-07
7.62151e-07
)
;

boundaryField
{
    inlet
    {
        type            cyclic;
    }
    outlet
    {
        type            cyclic;
    }
    fixedWalls-bottom
    {
        type            zeroGradient;
    }
    fixedWalls-top
    {
        type            symmetry;
    }
    frontAndBack
    {
        type            empty;
    }
}


// ************************************************************************* //
