/*--------------------------------*- C++ -*----------------------------------*\
  =========                 |
  \\      /  F ield         | OpenFOAM: The Open Source CFD Toolbox
   \\    /   O peration     | Website:  https://openfoam.org
    \\  /    A nd           | Version:  10
     \\/     M anipulation  |
\*---------------------------------------------------------------------------*/
FoamFile
{
    format      ascii;
    class       surfaceScalarField;
    location    "142";
    object      phi;
}
// * * * * * * * * * * * * * * * * * * * * * * * * * * * * * * * * * * * * * //

dimensions      [0 3 -1 0 0 0 0];

internalField   nonuniform List<scalar> 
346
(
0.000255413
1.57768e-09
0.000255414
-1.58544e-09
0.000255414
-6.48874e-12
1.52067e-09
0.000790862
1.20449e-09
0.000790865
-5.71557e-09
0.000790865
2.68892e-11
5.50495e-09
0.00136707
8.06182e-10
0.00136708
-1.18028e-08
0.00136708
3.22287e-10
1.15096e-08
0.00198621
1.41904e-10
0.00198622
-1.97587e-08
0.00198622
8.70684e-10
1.9343e-08
0.00265051
-8.35017e-10
0.00265051
-2.90339e-08
0.00265051
1.76712e-09
2.85728e-08
0.00336228
-2.08552e-09
0.00336229
-3.95347e-08
0.00336229
3.01203e-09
3.89768e-08
0.00412392
-3.92228e-09
0.00412393
-5.05885e-08
0.00412393
4.78373e-09
5.00117e-08
0.00493789
-6.22945e-09
0.0049379
-6.20802e-08
0.00493789
7.12901e-09
6.14288e-08
0.00580672
-9.47789e-09
0.00580673
-7.32618e-08
0.00580673
1.0326e-08
7.26082e-08
0.00673302
-1.35732e-08
0.00673303
-8.40291e-08
0.00673303
1.44707e-08
8.33198e-08
0.00771946
-1.90892e-08
0.00771947
-9.36179e-08
0.00771947
1.99419e-08
9.29177e-08
0.00876877
-2.59896e-08
0.00876878
-1.01972e-07
0.00876877
2.68876e-08
1.01232e-07
0.00988372
-3.49105e-08
0.00988373
-1.0838e-07
0.00988372
3.57706e-08
1.07655e-07
0.0110672
-4.58671e-08
0.0110672
-1.12878e-07
0.0110671
4.67632e-08
1.12127e-07
0.0123219
-5.95135e-08
0.0123219
-1.14871e-07
0.0123219
6.03737e-08
1.1414e-07
0.0136509
-7.58723e-08
0.0136509
-1.14535e-07
0.0136509
7.67574e-08
1.1379e-07
0.0150571
-9.55559e-08
0.0150571
-1.11446e-07
0.0150571
9.64076e-08
1.10724e-07
0.0165433
-1.18538e-07
0.0165433
-1.05935e-07
0.0165433
1.19404e-07
1.05208e-07
0.0181125
-1.45322e-07
0.0181125
-9.7774e-08
0.0181125
1.46154e-07
9.70738e-08
0.0197676
-1.75753e-07
0.0197676
-8.7457e-08
0.0197676
1.7659e-07
8.67611e-08
0.0215113
-2.10148e-07
0.0215113
-7.49557e-08
0.0215113
2.10949e-07
7.42878e-08
0.0233465
-2.48178e-07
0.0233465
-6.08722e-08
0.0233465
2.48976e-07
6.02163e-08
0.0252758
-2.89912e-07
0.0252758
-4.5346e-08
0.0252757
2.90672e-07
4.47206e-08
0.0273016
-3.34801e-07
0.0273016
-2.9033e-08
0.0273016
3.35551e-07
2.84274e-08
0.0294265
-3.82612e-07
0.0294264
-1.21885e-08
0.0294264
3.83326e-07
1.16107e-08
0.0316524
-4.32617e-07
0.0316524
4.57421e-09
0.0316524
4.33312e-07
-5.12457e-09
0.0339814
-4.8427e-07
0.0339814
2.09544e-08
0.0339814
4.84929e-07
-2.14786e-08
0.0364151
-5.36693e-07
0.0364151
3.64447e-08
0.036415
5.37326e-07
-3.69323e-08
0.0389547
-5.89051e-07
0.0389547
5.07627e-08
0.0389547
5.89658e-07
-5.12363e-08
0.0416012
-6.4042e-07
0.0416011
6.35677e-08
0.0416011
6.40993e-07
-6.39954e-08
0.0443548
-6.89739e-07
0.0443548
7.46402e-08
0.0443547
6.90293e-07
-7.50647e-08
0.0472155
-7.36108e-07
0.0472155
8.38119e-08
0.0472154
7.36618e-07
-8.41787e-08
0.0501824
-7.78336e-07
0.0501824
9.09387e-08
0.0501823
7.78844e-07
-9.13231e-08
0.053254
-8.1559e-07
0.053254
9.60057e-08
0.0532539
8.16045e-07
-9.6321e-08
0.056428
-8.46646e-07
0.056428
9.89281e-08
0.0564279
8.47112e-07
-9.92799e-08
0.0597009
-8.70733e-07
0.0597009
9.97934e-08
0.0597009
8.71135e-07
-1.00065e-07
0.0630685
-8.86667e-07
0.0630685
9.85558e-08
0.0630685
8.87095e-07
-9.88811e-08
0.0665251
-8.93668e-07
0.0665251
9.53608e-08
0.0665251
8.94019e-07
-9.55978e-08
0.0700637
-8.90601e-07
0.0700637
9.02047e-08
0.0700637
8.90996e-07
-9.0513e-08
0.0736756
-8.76613e-07
0.0736756
8.32805e-08
0.0736757
8.76924e-07
-8.34991e-08
0.0773506
-8.50589e-07
0.0773506
7.46771e-08
0.0773507
8.50944e-07
-7.49605e-08
0.0810763
-8.11538e-07
0.0810763
6.46487e-08
0.0810764
8.11807e-07
-6.48481e-08
0.0848382
-7.58349e-07
0.0848382
5.34078e-08
0.0848383
7.58651e-07
-5.36569e-08
0.0886193
-6.8997e-07
0.0886193
4.1234e-08
0.0886193
6.90197e-07
-4.14155e-08
0.0923997
-6.0548e-07
0.0923997
2.83057e-08
0.0923998
6.05699e-07
-2.84911e-08
0.0961566
-5.04393e-07
0.0961566
1.47129e-08
0.0961567
5.04546e-07
-1.48416e-08
0.0998636
-3.87301e-07
0.0998636
7.45834e-10
0.0998637
3.874e-07
-8.30507e-10
0.10349
-2.5745e-07
0.10349
-1.089e-08
0.103491
2.57473e-07
1.08719e-08
0.107003
-1.26361e-07
0.107003
-4.5009e-09
0.107003
1.26326e-07
4.53577e-09
0.110361
0.110361
0.110361
)
;

boundaryField
{
    inlet
    {
        type            cyclic;
        value           nonuniform List<scalar> 
50
(
-0.110361
-0.107003
-0.103491
-0.0998637
-0.0961567
-0.0923998
-0.0886193
-0.0848383
-0.0810764
-0.0773507
-0.0736757
-0.0700637
-0.0665251
-0.0630685
-0.0597009
-0.0564279
-0.053254
-0.0501823
-0.0472154
-0.0443547
-0.0416011
-0.0389547
-0.0364151
-0.0339814
-0.0316524
-0.0294264
-0.0273016
-0.0252757
-0.0233465
-0.0215113
-0.0197676
-0.0181125
-0.0165433
-0.0150571
-0.0136509
-0.0123219
-0.0110671
-0.00988371
-0.00876876
-0.00771946
-0.00673302
-0.00580672
-0.00493788
-0.00412391
-0.00336228
-0.0026505
-0.00198621
-0.00136707
-0.000790861
-0.000255412
)
;
    }
    outlet
    {
        type            cyclic;
        value           nonuniform List<scalar> 
50
(
0.110361
0.107003
0.103491
0.0998637
0.0961567
0.0923998
0.0886193
0.0848383
0.0810764
0.0773507
0.0736757
0.0700637
0.0665251
0.0630685
0.0597009
0.0564279
0.053254
0.0501823
0.0472154
0.0443547
0.0416011
0.0389547
0.0364151
0.0339814
0.0316524
0.0294264
0.0273016
0.0252757
0.0233465
0.0215113
0.0197676
0.0181125
0.0165433
0.0150571
0.0136509
0.0123219
0.0110671
0.00988371
0.00876876
0.00771946
0.00673302
0.00580672
0.00493788
0.00412391
0.00336228
0.0026505
0.00198621
0.00136707
0.000790861
0.000255412
)
;
    }
    fixedWalls-bottom
    {
        type            calculated;
        value           uniform 0;
    }
    fixedWalls-top
    {
        type            symmetry;
        value           uniform 0;
    }
    frontAndBack
    {
        type            empty;
        value           nonuniform List<scalar> 0();
    }
}


// ************************************************************************* //
