/*--------------------------------*- C++ -*----------------------------------*\
  =========                 |
  \\      /  F ield         | OpenFOAM: The Open Source CFD Toolbox
   \\    /   O peration     | Website:  https://openfoam.org
    \\  /    A nd           | Version:  10
     \\/     M anipulation  |
\*---------------------------------------------------------------------------*/
FoamFile
{
    format      ascii;
    class       volSymmTensorField;
    location    "142";
    object      R;
}
// * * * * * * * * * * * * * * * * * * * * * * * * * * * * * * * * * * * * * //

dimensions      [0 2 -2 0 0 0 0];

internalField   nonuniform List<symmTensor> 
200
(
(1.4803e-16 -2.43597e-20 -0 1.4803e-16 -0 1.4803e-16)
(1.4803e-16 -2.43597e-20 -0 1.4803e-16 -0 1.4803e-16)
(1.4803e-16 -2.43599e-20 -0 1.4803e-16 -0 1.4803e-16)
(1.4803e-16 -2.43597e-20 -0 1.4803e-16 -0 1.4803e-16)
(7.29448e-16 -7.31275e-19 -0 7.29448e-16 -0 7.29448e-16)
(7.29787e-16 -7.31616e-19 -0 7.29787e-16 -0 7.29787e-16)
(7.28396e-16 -7.30228e-19 -0 7.28396e-16 -0 7.28396e-16)
(7.28461e-16 -7.30287e-19 -0 7.28461e-16 -0 7.28461e-16)
(5.06211e-15 -1.53993e-17 -0 5.06211e-15 -0 5.06211e-15)
(5.06449e-15 -1.54064e-17 -0 5.06449e-15 -0 5.06449e-15)
(5.05496e-15 -1.53779e-17 -0 5.05496e-15 -0 5.05496e-15)
(5.05537e-15 -1.5379e-17 -0 5.05537e-15 -0 5.05537e-15)
(1.81314e-14 -1.1728e-16 -0 1.81314e-14 -0 1.81314e-14)
(1.814e-14 -1.17334e-16 -0 1.814e-14 -0 1.814e-14)
(1.81062e-14 -1.17128e-16 -0 1.81062e-14 -0 1.81062e-14)
(1.81076e-14 -1.17136e-16 -0 1.81076e-14 -0 1.81076e-14)
(4.65871e-14 -5.28227e-16 -0 4.65871e-14 -0 4.65871e-14)
(4.66098e-14 -5.28484e-16 -0 4.66098e-14 -0 4.66098e-14)
(4.65224e-14 -5.27539e-16 -0 4.65224e-14 -0 4.65224e-14)
(4.6526e-14 -5.27574e-16 -0 4.6526e-14 -0 4.6526e-14)
(9.84803e-14 -1.75129e-15 -0 9.84803e-14 -0 9.84803e-14)
(9.85297e-14 -1.75219e-15 -0 9.85297e-14 -0 9.85297e-14)
(9.83446e-14 -1.74902e-15 -0 9.83446e-14 -0 9.83446e-14)
(9.83524e-14 -1.74914e-15 -0 9.83524e-14 -0 9.83524e-14)
(1.83023e-13 -4.73588e-15 -0 1.83023e-13 -0 1.83023e-13)
(1.83118e-13 -4.73845e-15 -0 1.83118e-13 -0 1.83118e-13)
(1.82773e-13 -4.72982e-15 -0 1.82773e-13 -0 1.82773e-13)
(1.82789e-13 -4.73019e-15 -0 1.82789e-13 -0 1.82789e-13)
(3.10422e-13 -1.10753e-14 -0 3.10422e-13 -0 3.10422e-13)
(3.10591e-13 -1.10817e-14 -0 3.10591e-13 -0 3.10591e-13)
(3.10004e-13 -1.10614e-14 -0 3.10004e-13 -0 3.10004e-13)
(3.10034e-13 -1.10623e-14 -0 3.10034e-13 -0 3.10034e-13)
(4.91689e-13 -2.32244e-14 -0 4.91689e-13 -0 4.91689e-13)
(4.91969e-13 -2.32388e-14 -0 4.91969e-13 -0 4.91969e-13)
(4.91032e-13 -2.31957e-14 -0 4.91032e-13 -0 4.91032e-13)
(4.9109e-13 -2.31983e-14 -0 4.9109e-13 -0 4.9109e-13)
(7.38394e-13 -4.47191e-14 -0 7.38395e-13 -0 7.38394e-13)
(7.38842e-13 -4.47492e-14 -0 7.38843e-13 -0 7.38842e-13)
(7.37411e-13 -4.46652e-14 -0 7.37411e-13 -0 7.37411e-13)
(7.37523e-13 -4.46716e-14 -0 7.37523e-13 -0 7.37523e-13)
(1.06239e-12 -8.03694e-14 -0 1.06239e-12 -0 1.06239e-12)
(1.06308e-12 -8.04283e-14 -0 1.06308e-12 -0 1.06308e-12)
(1.06096e-12 -8.02745e-14 -0 1.06096e-12 -0 1.06096e-12)
(1.06118e-12 -8.02905e-14 -0 1.06118e-12 -0 1.06118e-12)
(1.47549e-12 -1.36385e-13 -0 1.47549e-12 -0 1.47549e-12)
(1.47652e-12 -1.36495e-13 -0 1.47652e-12 -0 1.47652e-12)
(1.47345e-12 -1.36227e-13 -0 1.47345e-12 -0 1.47345e-12)
(1.47387e-12 -1.36266e-13 -0 1.47387e-12 -0 1.47387e-12)
(1.98906e-12 -2.20387e-13 -0 1.98906e-12 -0 1.98906e-12)
(1.99053e-12 -2.2058e-13 -0 1.99053e-12 -0 1.99053e-12)
(1.98614e-12 -2.20133e-13 -0 1.98614e-12 -0 1.98614e-12)
(1.98695e-12 -2.20228e-13 -0 1.98695e-12 -0 1.98695e-12)
(2.61361e-12 -3.41248e-13 -0 2.61361e-12 -0 2.61361e-12)
(2.61563e-12 -3.41569e-13 -0 2.61563e-12 -0 2.61563e-12)
(2.60939e-12 -3.40846e-13 -0 2.60939e-12 -0 2.60939e-12)
(2.61095e-12 -3.41069e-13 -0 2.61095e-12 -0 2.61095e-12)
(3.35839e-12 -5.08735e-13 -0 3.35839e-12 -0 3.35839e-12)
(3.36095e-12 -5.09228e-13 -0 3.36095e-12 -0 3.36095e-12)
(3.35211e-12 -5.08083e-13 -0 3.35211e-12 -0 3.35211e-12)
(3.35513e-12 -5.08599e-13 -0 3.35513e-12 -0 3.35513e-12)
(4.23066e-12 -7.32881e-13 -0 4.23066e-12 -0 4.23066e-12)
(4.23372e-12 -7.33596e-13 -0 4.23372e-12 -0 4.23372e-12)
(4.2212e-12 -7.31805e-13 -0 4.2212e-12 -0 4.2212e-12)
(4.22678e-12 -7.32926e-13 -0 4.22678e-12 -0 4.22678e-12)
(5.23525e-12 -1.02318e-12 -0 5.23525e-12 -0 5.23525e-12)
(5.23874e-12 -1.02417e-12 -0 5.23874e-12 -0 5.23874e-12)
(5.221e-12 -1.02138e-12 -0 5.221e-12 -0 5.221e-12)
(5.23076e-12 -1.02366e-12 -0 5.23076e-12 -0 5.23076e-12)
(6.37401e-12 -1.38765e-12 -0 6.37402e-12 -0 6.37401e-12)
(6.37781e-12 -1.38896e-12 -0 6.37781e-12 -0 6.37781e-12)
(6.35275e-12 -1.38461e-12 -0 6.35275e-12 -0 6.35275e-12)
(6.36903e-12 -1.38896e-12 -0 6.36903e-12 -0 6.36903e-12)
(7.64531e-12 -1.83185e-12 -0 7.64532e-12 -0 7.64531e-12)
(7.64931e-12 -1.8335e-12 -0 7.64931e-12 -0 7.64931e-12)
(7.61407e-12 -1.82674e-12 -0 7.61407e-12 -0 7.61407e-12)
(7.64014e-12 -1.8346e-12 -0 7.64014e-12 -0 7.64014e-12)
(9.0436e-12 -2.35806e-12 -0 9.04361e-12 -0 9.0436e-12)
(9.04767e-12 -2.36006e-12 -0 9.04767e-12 -0 9.04767e-12)
(8.99866e-12 -2.34959e-12 -0 8.99865e-12 -0 8.99865e-12)
(9.0389e-12 -2.36312e-12 -0 9.0389e-12 -0 9.0389e-12)
(1.05591e-11 -2.96471e-12 -0 1.05592e-11 -0 1.05592e-11)
(1.05634e-11 -2.96702e-12 -0 1.05634e-11 -0 1.05634e-11)
(1.04961e-11 -2.95119e-12 -0 1.04961e-11 -0 1.04961e-11)
(1.05558e-11 -2.97315e-12 -0 1.05558e-11 -0 1.05558e-11)
(1.21768e-11 -3.64581e-12 -0 1.21768e-11 -0 1.21768e-11)
(1.21823e-11 -3.64869e-12 -0 1.21822e-11 -0 1.21823e-11)
(1.20918e-11 -3.62557e-12 -0 1.20918e-11 -0 1.20918e-11)
(1.21717e-11 -3.6576e-12 -0 1.21717e-11 -0 1.21717e-11)
(1.38748e-11 -4.3906e-12 -0 1.38748e-11 -0 1.38748e-11)
(1.38828e-11 -4.39437e-12 -0 1.38828e-11 -0 1.38828e-11)
(1.37672e-11 -4.36299e-12 -0 1.37672e-11 -0 1.37672e-11)
(1.38694e-11 -4.40691e-12 -0 1.38694e-11 -0 1.38694e-11)
(1.56301e-11 -5.18551e-12 -0 1.56301e-11 -0 1.56301e-11)
(1.56419e-11 -5.19047e-12 -0 1.56419e-11 -0 1.56419e-11)
(1.54996e-11 -5.15007e-12 -0 1.54996e-11 -0 1.54996e-11)
(1.56252e-11 -5.20738e-12 -0 1.56252e-11 -0 1.56252e-11)
(1.74162e-11 -6.01407e-12 -0 1.74162e-11 -0 1.74162e-11)
(1.7433e-11 -6.02054e-12 -0 1.74329e-11 -0 1.74329e-11)
(1.72632e-11 -5.97075e-12 -0 1.72632e-11 -0 1.72632e-11)
(1.74123e-11 -6.04248e-12 -0 1.74123e-11 -0 1.74123e-11)
(1.92036e-11 -6.85777e-12 -0 1.92037e-11 -0 1.92036e-11)
(1.92265e-11 -6.86652e-12 -0 1.92265e-11 -0 1.92265e-11)
(1.90293e-11 -6.80697e-12 -0 1.90293e-11 -0 1.90293e-11)
(1.9201e-11 -6.89367e-12 -0 1.9201e-11 -0 1.9201e-11)
(2.09612e-11 -7.69707e-12 -0 2.09612e-11 -0 2.09612e-11)
(2.09913e-11 -7.70909e-12 -0 2.09913e-11 -0 2.09913e-11)
(2.07676e-11 -7.6398e-12 -0 2.07675e-11 -0 2.07676e-11)
(2.09602e-11 -7.74135e-12 -0 2.09602e-11 -0 2.09602e-11)
(2.26567e-11 -8.5132e-12 -0 2.26567e-11 -0 2.26567e-11)
(2.26949e-11 -8.52806e-12 -0 2.26949e-11 -0 2.26949e-11)
(2.24465e-11 -8.44997e-12 -0 2.24464e-11 -0 2.24464e-11)
(2.26575e-11 -8.56572e-12 -0 2.26575e-11 -0 2.26575e-11)
(2.42576e-11 -9.28685e-12 -0 2.42577e-11 -0 2.42577e-11)
(2.43048e-11 -9.30394e-12 -0 2.43048e-11 -0 2.43048e-11)
(2.40341e-11 -9.21838e-12 -0 2.40341e-11 -0 2.40341e-11)
(2.42605e-11 -9.3471e-12 -0 2.42606e-11 -0 2.42605e-11)
(2.57319e-11 -9.99921e-12 -0 2.5732e-11 -0 2.57319e-11)
(2.57888e-11 -1.00178e-11 -0 2.57888e-11 -0 2.57888e-11)
(2.54992e-11 -9.92638e-12 -0 2.54992e-11 -0 2.54992e-11)
(2.57375e-11 -1.00666e-11 -0 2.57375e-11 -0 2.57375e-11)
(2.70483e-11 -1.06303e-11 -0 2.70483e-11 -0 2.70483e-11)
(2.71159e-11 -1.06529e-11 -0 2.71159e-11 -0 2.71159e-11)
(2.68115e-11 -1.05557e-11 -0 2.68115e-11 -0 2.68115e-11)
(2.70577e-11 -1.07059e-11 -0 2.70577e-11 -0 2.70577e-11)
(2.81781e-11 -1.11633e-11 -0 2.81782e-11 -0 2.81781e-11)
(2.82566e-11 -1.11935e-11 -0 2.82566e-11 -0 2.82566e-11)
(2.79427e-11 -1.1089e-11 -0 2.79426e-11 -0 2.79427e-11)
(2.81921e-11 -1.12479e-11 -0 2.81921e-11 -0 2.81921e-11)
(2.90961e-11 -1.1583e-11 -0 2.90961e-11 -0 2.90961e-11)
(2.91832e-11 -1.1619e-11 -0 2.91832e-11 -0 2.91832e-11)
(2.8867e-11 -1.15146e-11 -0 2.88669e-11 -0 2.8867e-11)
(2.91139e-11 -1.16758e-11 -0 2.91139e-11 -0 2.91139e-11)
(2.97815e-11 -1.18767e-11 -0 2.97816e-11 -0 2.97815e-11)
(2.98712e-11 -1.19312e-11 -0 2.98711e-11 -0 2.98711e-11)
(2.95622e-11 -1.18155e-11 -0 2.95621e-11 -0 2.95622e-11)
(2.98e-11 -1.19747e-11 -0 2.98e-11 -0 2.98e-11)
(3.02205e-11 -1.20371e-11 -0 3.02205e-11 -0 3.02205e-11)
(3.02987e-11 -1.20919e-11 -0 3.02987e-11 -0 3.02987e-11)
(3.00117e-11 -1.19827e-11 -0 3.00117e-11 -0 3.00117e-11)
(3.02339e-11 -1.21375e-11 -0 3.02339e-11 -0 3.02339e-11)
(3.04083e-11 -1.20573e-11 -0 3.04084e-11 -0 3.04083e-11)
(3.04565e-11 -1.21012e-11 -0 3.04565e-11 -0 3.04565e-11)
(3.02041e-11 -1.20067e-11 -0 3.02041e-11 -0 3.02041e-11)
(3.04145e-11 -1.21585e-11 -0 3.04145e-11 -0 3.04145e-11)
(3.03526e-11 -1.19353e-11 -0 3.03526e-11 -0 3.03526e-11)
(3.0362e-11 -1.19618e-11 -0 3.0362e-11 -0 3.0362e-11)
(3.0133e-11 -1.18816e-11 -0 3.0133e-11 -0 3.0133e-11)
(3.03795e-11 -1.20491e-11 -0 3.03795e-11 -0 3.03795e-11)
(3.00715e-11 -1.16728e-11 -0 3.00716e-11 -0 3.00716e-11)
(3.00202e-11 -1.1669e-11 -0 3.00202e-11 -0 3.00202e-11)
(2.98028e-11 -1.16044e-11 -0 2.98028e-11 -0 2.98028e-11)
(3.01822e-11 -1.18281e-11 -0 3.01822e-11 -0 3.01822e-11)
(2.96318e-11 -1.12845e-11 -0 2.96318e-11 -0 2.96318e-11)
(2.94406e-11 -1.1259e-11 -0 2.94406e-11 -0 2.94406e-11)
(2.92255e-11 -1.11649e-11 -0 2.92256e-11 -0 2.92255e-11)
(2.96406e-11 -1.14192e-11 -0 2.96406e-11 -0 2.96406e-11)
(2.89856e-11 -1.07716e-11 -0 2.89856e-11 -0 2.89856e-11)
(2.86398e-11 -1.06919e-11 -0 2.86398e-11 -0 2.86398e-11)
(2.84207e-11 -1.0598e-11 -0 2.84207e-11 -0 2.84207e-11)
(2.88192e-11 -1.0841e-11 -0 2.88192e-11 -0 2.88192e-11)
(2.80381e-11 -1.00858e-11 -0 2.8038e-11 -0 2.80381e-11)
(2.76589e-11 -9.99933e-12 -0 2.76589e-11 -0 2.76589e-11)
(2.74164e-11 -9.89903e-12 -0 2.74164e-11 -0 2.74164e-11)
(2.77661e-11 -1.01171e-11 -0 2.77661e-11 -0 2.77661e-11)
(2.68281e-11 -9.24558e-12 -0 2.6828e-11 -0 2.68281e-11)
(2.6532e-11 -9.19386e-12 -0 2.6532e-11 -0 2.6532e-11)
(2.62462e-11 -9.08148e-12 -0 2.62462e-11 -0 2.62462e-11)
(2.65101e-11 -9.2613e-12 -0 2.65101e-11 -0 2.65101e-11)
(2.52898e-11 -8.23841e-12 -0 2.52897e-11 -0 2.52898e-11)
(2.52921e-11 -8.2889e-12 -0 2.52921e-11 -0 2.52921e-11)
(2.49506e-11 -8.16289e-12 -0 2.49507e-11 -0 2.49507e-11)
(2.51393e-11 -8.30819e-12 -0 2.51393e-11 -0 2.51393e-11)
(2.3792e-11 -7.19417e-12 -0 2.37919e-11 -0 2.3792e-11)
(2.40394e-11 -7.31379e-12 -0 2.40394e-11 -0 2.40394e-11)
(2.35729e-11 -7.16012e-12 -0 2.3573e-11 -0 2.35729e-11)
(2.37081e-11 -7.27591e-12 -0 2.3708e-11 -0 2.37081e-11)
(2.23366e-11 -6.11272e-12 -0 2.23365e-11 -0 2.23365e-11)
(2.27313e-11 -6.25116e-12 -0 2.27313e-11 -0 2.27313e-11)
(2.21781e-11 -6.09829e-12 -0 2.21782e-11 -0 2.21781e-11)
(2.22776e-11 -6.18396e-12 -0 2.22776e-11 -0 2.22776e-11)
(2.09634e-11 -5.01396e-12 -0 2.09632e-11 -0 2.09633e-11)
(2.14019e-11 -5.11382e-12 -0 2.1402e-11 -0 2.1402e-11)
(2.08378e-11 -5.00814e-12 -0 2.08379e-11 -0 2.08379e-11)
(2.0918e-11 -5.05694e-12 -0 2.0918e-11 -0 2.0918e-11)
(1.97267e-11 -3.88963e-12 -0 1.97266e-11 -0 1.97266e-11)
(2.0141e-11 -3.96719e-12 -0 2.0141e-11 -0 2.0141e-11)
(1.96199e-11 -3.89341e-12 -0 1.96201e-11 -0 1.962e-11)
(1.97281e-11 -3.92968e-12 -0 1.97281e-11 -0 1.97281e-11)
(1.86837e-11 -2.76796e-12 -0 1.86836e-11 -0 1.86837e-11)
(1.9072e-11 -2.82892e-12 -0 1.9072e-11 -0 1.9072e-11)
(1.85909e-11 -2.7714e-12 -0 1.8591e-11 -0 1.85909e-11)
(1.88382e-11 -2.8204e-12 -0 1.88382e-11 -0 1.88382e-11)
(1.79125e-11 -1.6534e-12 -0 1.79124e-11 -0 1.79125e-11)
(1.82684e-11 -1.68268e-12 -0 1.82684e-11 -0 1.82684e-11)
(1.78158e-11 -1.65788e-12 -0 1.78159e-11 -0 1.78158e-11)
(1.81831e-11 -1.69821e-12 -0 1.81831e-11 -0 1.81831e-11)
(1.74345e-11 -5.47441e-13 -0 1.74344e-11 -0 1.74344e-11)
(1.77994e-11 -5.58257e-13 -0 1.77994e-11 -0 1.77994e-11)
(1.73538e-11 -5.49908e-13 -0 1.7354e-11 -0 1.73539e-11)
(1.77533e-11 -5.65474e-13 -0 1.77533e-11 -0 1.77533e-11)
)
;

boundaryField
{
    inlet
    {
        type            cyclic;
    }
    outlet
    {
        type            cyclic;
    }
    fixedWalls-bottom
    {
        type            kqRWallFunction;
        value           uniform (1.4803e-16 -0 -0 1.4803e-16 -0 1.4803e-16);
    }
    fixedWalls-top
    {
        type            symmetry;
    }
    frontAndBack
    {
        type            empty;
    }
}


// ************************************************************************* //
