/*--------------------------------*- C++ -*----------------------------------*\
  =========                 |
  \\      /  F ield         | OpenFOAM: The Open Source CFD Toolbox
   \\    /   O peration     | Website:  https://openfoam.org
    \\  /    A nd           | Version:  10
     \\/     M anipulation  |
\*---------------------------------------------------------------------------*/
FoamFile
{
    format      ascii;
    class       volVectorField;
    location    "142";
    object      U;
}
// * * * * * * * * * * * * * * * * * * * * * * * * * * * * * * * * * * * * * //

dimensions      [0 1 -1 0 0 0 0];

internalField   nonuniform List<vector> 
200
(
(0.0138619 6.33664e-10 0)
(0.0138619 -4.68819e-10 0)
(0.013862 -1.08194e-10 0)
(0.0138619 4.00527e-10 0)
(0.0417247 1.75924e-09 0)
(0.0417248 -3.14285e-09 0)
(0.0417251 3.75942e-11 0)
(0.0417248 3.03916e-09 0)
(0.0701129 1.09242e-09 0)
(0.070113 -8.3266e-09 0)
(0.0701135 1.1764e-10 0)
(0.070113 8.06892e-09 0)
(0.0990248 6.32965e-10 0)
(0.099025 -1.54164e-08 0)
(0.0990256 5.36527e-10 0)
(0.0990249 1.50605e-08 0)
(0.128458 -2.25664e-10 0)
(0.128458 -2.4144e-08 0)
(0.128459 1.24032e-09 0)
(0.128458 2.37019e-08 0)
(0.158409 -1.3477e-09 0)
(0.158409 -3.41379e-08 0)
(0.15841 2.29013e-09 0)
(0.158409 3.36243e-08 0)
(0.188872 -2.88176e-09 0)
(0.188873 -4.5022e-08 0)
(0.188873 3.77214e-09 0)
(0.188872 4.44495e-08 0)
(0.219843 -4.92983e-09 0)
(0.219843 -5.63981e-08 0)
(0.219844 5.79831e-09 0)
(0.219843 5.57796e-08 0)
(0.251313 -7.66459e-09 0)
(0.251314 -6.78413e-08 0)
(0.251314 8.52731e-09 0)
(0.251313 6.71842e-08 0)
(0.283275 -1.12884e-08 0)
(0.283275 -7.89135e-08 0)
(0.283276 1.21496e-08 0)
(0.283275 7.82286e-08 0)
(0.315717 -1.60304e-08 0)
(0.315717 -8.91877e-08 0)
(0.315718 1.68986e-08 0)
(0.315717 8.84795e-08 0)
(0.348629 -2.21762e-08 0)
(0.348628 -9.82377e-08 0)
(0.348629 2.30453e-08 0)
(0.348628 9.75152e-08 0)
(0.381995 -3.00133e-08 0)
(0.381995 -1.0569e-07 0)
(0.381996 3.08899e-08 0)
(0.381994 1.04955e-07 0)
(0.415802 -3.98856e-08 0)
(0.415801 -1.11189e-07 0)
(0.415802 4.07613e-08 0)
(0.415801 1.1045e-07 0)
(0.450031 -5.21154e-08 0)
(0.45003 -1.1447e-07 0)
(0.450031 5.29936e-08 0)
(0.450029 1.13727e-07 0)
(0.484662 -6.70607e-08 0)
(0.484662 -1.15302e-07 0)
(0.484662 6.79328e-08 0)
(0.48466 1.14563e-07 0)
(0.519674 -8.50272e-08 0)
(0.519674 -1.13579e-07 0)
(0.519674 8.58964e-08 0)
(0.519672 1.12845e-07 0)
(0.555042 -1.06328e-07 0)
(0.555041 -1.09236e-07 0)
(0.555042 1.07187e-07 0)
(0.55504 1.08511e-07 0)
(0.590739 -1.3119e-07 0)
(0.590738 -1.02345e-07 0)
(0.590738 1.3204e-07 0)
(0.590736 1.01631e-07 0)
(0.626734 -1.59806e-07 0)
(0.626733 -9.30215e-08 0)
(0.626733 1.60641e-07 0)
(0.626731 9.23234e-08 0)
(0.662994 -1.92246e-07 0)
(0.662993 -8.15202e-08 0)
(0.662993 1.93066e-07 0)
(0.662991 8.08385e-08 0)
(0.699483 -2.28521e-07 0)
(0.699482 -6.81131e-08 0)
(0.699482 2.29321e-07 0)
(0.69948 6.74519e-08 0)
(0.73616 -2.68488e-07 0)
(0.73616 -5.31948e-08 0)
(0.736159 2.69267e-07 0)
(0.736157 5.2555e-08 0)
(0.772982 -3.11921e-07 0)
(0.772982 -3.71501e-08 0)
(0.772981 3.12675e-07 0)
(0.772979 3.65359e-08 0)
(0.809901 -3.58415e-07 0)
(0.809901 -2.04569e-08 0)
(0.8099 3.59145e-07 0)
(0.809898 1.98665e-08 0)
(0.846865 -4.07497e-07 0)
(0.846864 -3.53877e-09 0)
(0.846864 4.08199e-07 0)
(0.846862 2.97637e-09 0)
(0.883816 -4.58517e-07 0)
(0.883816 1.31285e-08 0)
(0.883815 4.59192e-07 0)
(0.883813 -1.36644e-08 0)
(0.920693 -5.10769e-07 0)
(0.920693 2.91485e-08 0)
(0.920692 5.11411e-07 0)
(0.92069 -2.96528e-08 0)
(0.957429 -5.63381e-07 0)
(0.957429 4.41144e-08 0)
(0.957428 5.63996e-07 0)
(0.957426 -4.45938e-08 0)
(0.99395 -6.15476e-07 0)
(0.99395 5.77198e-08 0)
(0.99395 6.16061e-07 0)
(0.993948 -5.81695e-08 0)
(1.03018 -6.6605e-07 0)
(1.03018 6.96796e-08 0)
(1.03018 6.66609e-07 0)
(1.03018 -7.01056e-08 0)
(1.06603 -7.14123e-07 0)
(1.06603 7.98022e-08 0)
(1.06603 7.1465e-07 0)
(1.06603 -8.01984e-08 0)
(1.10141 -7.58643e-07 0)
(1.10141 8.79328e-08 0)
(1.10141 7.59147e-07 0)
(1.10141 -8.83096e-08 0)
(1.13622 -7.98597e-07 0)
(1.13622 9.39904e-08 0)
(1.13622 7.99074e-07 0)
(1.13622 -9.43426e-08 0)
(1.17036 -8.32956e-07 0)
(1.17036 9.79318e-08 0)
(1.17036 8.33412e-07 0)
(1.17036 -9.82676e-08 0)
(1.2037 -8.60721e-07 0)
(1.2037 9.97506e-08 0)
(1.2037 8.61152e-07 0)
(1.2037 -1.00066e-07 0)
(1.23613 -8.80918e-07 0)
(1.23613 9.94778e-08 0)
(1.23613 8.81331e-07 0)
(1.23613 -9.97784e-08 0)
(1.2675 -8.92564e-07 0)
(1.2675 9.71457e-08 0)
(1.2675 8.92955e-07 0)
(1.2675 -9.74304e-08 0)
(1.29769 -8.94707e-07 0)
(1.29769 9.28392e-08 0)
(1.29769 8.95081e-07 0)
(1.29769 -9.31122e-08 0)
(1.32652 -8.86348e-07 0)
(1.32652 8.66305e-08 0)
(1.32652 8.86706e-07 0)
(1.32652 -8.68951e-08 0)
(1.35384 -8.66504e-07 0)
(1.35384 7.86766e-08 0)
(1.35384 8.66842e-07 0)
(1.35384 -7.89243e-08 0)
(1.37946 -8.34123e-07 0)
(1.37946 6.91425e-08 0)
(1.37946 8.34445e-07 0)
(1.37946 -6.93796e-08 0)
(1.4032 -7.88155e-07 0)
(1.4032 5.82866e-08 0)
(1.4032 7.88452e-07 0)
(1.40321 -5.85001e-08 0)
(1.42485 -7.2753e-07 0)
(1.42485 4.63643e-08 0)
(1.42485 7.27813e-07 0)
(1.42486 -4.65641e-08 0)
(1.44419 -6.51167e-07 0)
(1.44419 3.35317e-08 0)
(1.44419 6.51413e-07 0)
(1.4442 -3.36925e-08 0)
(1.46099 -5.58008e-07 0)
(1.46099 1.97441e-08 0)
(1.46099 5.58222e-07 0)
(1.46099 -1.98735e-08 0)
(1.47499 -4.47472e-07 0)
(1.47499 5.18618e-09 0)
(1.47499 4.47617e-07 0)
(1.47499 -5.27019e-09 0)
(1.48592 -3.21772e-07 0)
(1.48592 -6.92464e-09 0)
(1.48592 3.21866e-07 0)
(1.48592 6.90446e-09 0)
(1.49349 -1.91146e-07 0)
(1.49349 -8.38178e-09 0)
(1.49349 1.90881e-07 0)
(1.49349 8.18644e-09 0)
(1.49739 -6.37713e-08 0)
(1.49739 8.48163e-10 0)
(1.49739 6.4016e-08 0)
(1.4974 -6.13156e-10 0)
)
;

boundaryField
{
    inlet
    {
        type            cyclic;
    }
    outlet
    {
        type            cyclic;
    }
    fixedWalls-bottom
    {
        type            noSlip;
    }
    fixedWalls-top
    {
        type            symmetry;
    }
    frontAndBack
    {
        type            empty;
    }
}


// ************************************************************************* //
