/*--------------------------------*- C++ -*----------------------------------*\
  =========                 |
  \\      /  F ield         | OpenFOAM: The Open Source CFD Toolbox
   \\    /   O peration     | Website:  https://openfoam.org
    \\  /    A nd           | Version:  10
     \\/     M anipulation  |
\*---------------------------------------------------------------------------*/
FoamFile
{
    format      ascii;
    class       volScalarField;
    location    "584";
    object      k;
}
// * * * * * * * * * * * * * * * * * * * * * * * * * * * * * * * * * * * * * //

dimensions      [0 2 -2 0 0 0 0];

internalField   nonuniform List<scalar> 
200
(
9.85853e-05
9.85847e-05
9.85836e-05
9.85813e-05
0.00235093
0.00235091
0.00235089
0.00235084
0.00536448
0.00536446
0.00536442
0.00536435
0.00647104
0.00647102
0.00647098
0.00647089
0.00691941
0.00691941
0.00691936
0.00691927
0.00711619
0.00711619
0.00711615
0.00711606
0.00720075
0.00720075
0.00720072
0.00720065
0.00722482
0.00722482
0.0072248
0.00722475
0.00721149
0.0072115
0.00721148
0.00721144
0.0071732
0.00717321
0.00717319
0.00717317
0.00711718
0.00711718
0.00711717
0.00711716
0.00704787
0.00704787
0.00704787
0.00704787
0.00696819
0.00696818
0.00696819
0.00696819
0.00688006
0.00688005
0.00688007
0.00688006
0.00678487
0.00678485
0.00678488
0.00678487
0.00668358
0.00668356
0.00668359
0.00668358
0.00657694
0.00657691
0.00657694
0.00657693
0.00646548
0.00646545
0.00646548
0.00646547
0.00634959
0.00634957
0.0063496
0.00634959
0.00622947
0.00622945
0.00622947
0.00622947
0.00610528
0.00610526
0.00610529
0.00610528
0.0059773
0.00597728
0.0059773
0.00597729
0.00584594
0.00584594
0.00584595
0.00584593
0.00571172
0.00571172
0.00571172
0.0057117
0.00557502
0.00557503
0.00557502
0.00557499
0.00543603
0.00543603
0.00543604
0.00543599
0.00529499
0.00529499
0.005295
0.00529494
0.00515219
0.00515218
0.0051522
0.00515213
0.00500793
0.00500792
0.00500794
0.00500786
0.00486258
0.00486257
0.00486259
0.00486251
0.00471652
0.00471652
0.00471654
0.00471644
0.00457019
0.00457019
0.00457021
0.00457011
0.00442407
0.00442406
0.00442409
0.00442397
0.00427867
0.00427866
0.00427868
0.00427856
0.00413457
0.00413457
0.00413457
0.00413447
0.0039924
0.00399244
0.00399242
0.00399233
0.0038529
0.00385293
0.00385292
0.00385283
0.00371679
0.00371681
0.00371681
0.00371673
0.00358489
0.00358491
0.00358491
0.00358484
0.00345806
0.00345807
0.00345808
0.00345801
0.00333723
0.00333723
0.00333724
0.00333718
0.00322334
0.00322334
0.00322334
0.0032233
0.00311744
0.00311742
0.00311743
0.00311738
0.00302058
0.00302053
0.00302055
0.00302049
0.00293383
0.00293377
0.00293382
0.00293373
0.00285833
0.00285828
0.00285833
0.00285823
0.00279529
0.00279523
0.00279528
0.00279519
0.00274594
0.00274589
0.00274592
0.00274585
0.00271159
0.00271157
0.00271158
0.00271152
0.0026937
0.00269365
0.00269366
0.00269359
)
;

boundaryField
{
    inlet
    {
        type            cyclic;
    }
    outlet
    {
        type            cyclic;
    }
    fixedWalls-bottom
    {
        type            kqRWallFunction;
        value           nonuniform List<scalar> 4(9.85853e-05 9.85847e-05 9.85836e-05 9.85813e-05);
    }
    fixedWalls-top
    {
        type            symmetry;
    }
    frontAndBack
    {
        type            empty;
    }
}


// ************************************************************************* //
