/*--------------------------------*- C++ -*----------------------------------*\
  =========                 |
  \\      /  F ield         | OpenFOAM: The Open Source CFD Toolbox
   \\    /   O peration     | Website:  https://openfoam.org
    \\  /    A nd           | Version:  10
     \\/     M anipulation  |
\*---------------------------------------------------------------------------*/
FoamFile
{
    format      ascii;
    class       volScalarField;
    location    "584";
    object      nut;
}
// * * * * * * * * * * * * * * * * * * * * * * * * * * * * * * * * * * * * * //

dimensions      [0 2 -1 0 0 0 0];

internalField   nonuniform List<scalar> 
200
(
3.15266e-07
3.15264e-07
3.15261e-07
3.15253e-07
3.11811e-05
3.11808e-05
3.11805e-05
3.11799e-05
0.000140182
0.000140182
0.000140181
0.000140178
0.00028341
0.00028341
0.000283409
0.000283404
0.000446903
0.000446904
0.000446903
0.000446894
0.000616626
0.000616619
0.000616608
0.000616596
0.000789293
0.000789288
0.000789275
0.000789261
0.000965518
0.000965515
0.000965497
0.00096549
0.00114406
0.00114406
0.00114404
0.00114404
0.00132411
0.0013241
0.00132409
0.0013241
0.00150508
0.00150508
0.00150507
0.00150508
0.00168656
0.00168656
0.00168655
0.00168657
0.00186821
0.00186821
0.00186821
0.00186823
0.00204975
0.00204976
0.00204976
0.00204979
0.00223097
0.00223099
0.00223099
0.00223104
0.00241169
0.00241172
0.00241173
0.00241178
0.00259177
0.00259181
0.00259183
0.00259187
0.00277111
0.00277117
0.00277123
0.00277121
0.00294821
0.00294819
0.00294821
0.00294818
0.00312107
0.00312104
0.00312104
0.00312101
0.00329363
0.00329361
0.00329358
0.00329359
0.00346929
0.00346929
0.00346923
0.00346932
0.00365019
0.0036502
0.00365012
0.00365031
0.00383544
0.00383545
0.0038354
0.00383557
0.00401822
0.00401806
0.00401822
0.00401784
0.00419472
0.00419445
0.00419462
0.00419406
0.00437009
0.00436974
0.00436994
0.0043692
0.00454423
0.00454381
0.00454406
0.00454313
0.00471701
0.00471656
0.00471685
0.00471576
0.00488837
0.00488792
0.00488819
0.00488701
0.00505819
0.00505787
0.00505791
0.00505685
0.00522629
0.00522646
0.00522604
0.00522513
0.00539309
0.00539282
0.00539281
0.00539176
0.00555817
0.00555778
0.00555783
0.00555669
0.00572148
0.00572099
0.00572112
0.00571979
0.00588309
0.0058823
0.00588275
0.00588087
0.00604219
0.00604161
0.00604176
0.00604002
0.00619855
0.0061988
0.00619808
0.00619688
0.00635254
0.0063527
0.0063518
0.00635091
0.00650326
0.00650278
0.00650248
0.00650154
0.00664994
0.00664929
0.00664901
0.00664805
0.0067916
0.00679076
0.00679047
0.00678943
0.00692675
0.00692589
0.0069255
0.00692441
0.00705379
0.0070531
0.00705243
0.0070513
0.00717059
0.00717082
0.00716922
0.00716805
0.00727505
0.0072742
0.0072737
0.00727237
0.00736428
0.00736335
0.00736267
0.00736135
0.00743524
0.00743465
0.00743327
0.007432
0.00748482
0.00748567
0.00748235
0.00748112
0.00751033
0.00751083
0.00750781
0.0075057
)
;

boundaryField
{
    inlet
    {
        type            cyclic;
    }
    outlet
    {
        type            cyclic;
    }
    fixedWalls-bottom
    {
        type            nutkWallFunction;
        Cmu             0.09;
        kappa           0.41;
        E               9.8;
        value           uniform 0;
    }
    fixedWalls-top
    {
        type            symmetry;
    }
    frontAndBack
    {
        type            empty;
    }
}


// ************************************************************************* //
