/*--------------------------------*- C++ -*----------------------------------*\
  =========                 |
  \\      /  F ield         | OpenFOAM: The Open Source CFD Toolbox
   \\    /   O peration     | Website:  https://openfoam.org
    \\  /    A nd           | Version:  10
     \\/     M anipulation  |
\*---------------------------------------------------------------------------*/
FoamFile
{
    format      ascii;
    class       volScalarField;
    location    "584";
    object      omega;
}
// * * * * * * * * * * * * * * * * * * * * * * * * * * * * * * * * * * * * * //

dimensions      [0 0 -1 0 0 0 0];

internalField   nonuniform List<scalar> 
200
(
312.705
312.705
312.705
312.705
75.3959
75.3962
75.3962
75.3962
36.8052
36.8056
36.8057
36.8057
22.3206
22.3209
22.321
22.321
15.4032
15.4035
15.4036
15.4037
11.5405
11.5407
11.5408
11.5409
9.12304
9.1231
9.12322
9.12328
7.48284
7.48287
7.48298
7.48298
6.30341
6.30343
6.30349
6.30348
5.41738
5.4174
5.41743
5.41741
4.72876
4.72878
4.72879
4.72875
4.17885
4.17885
4.17886
4.17881
3.72988
3.72987
3.72988
3.72983
3.35653
3.35652
3.35652
3.35647
3.04121
3.04118
3.04119
3.04113
2.77132
2.77128
2.77129
2.77122
2.53763
2.53757
2.53757
2.53752
2.33317
2.33311
2.33307
2.33309
2.1526
2.15253
2.15248
2.15252
1.99158
1.99153
1.99145
1.99151
1.84671
1.84674
1.8466
1.84667
1.71552
1.71553
1.71543
1.71549
1.59613
1.59613
1.59607
1.59612
1.48716
1.48716
1.48712
1.48718
1.38744
1.38749
1.38744
1.38756
1.29592
1.29601
1.29596
1.29612
1.21164
1.21174
1.21169
1.21188
1.13379
1.13389
1.13383
1.13405
1.06167
1.06177
1.06171
1.06194
0.994725
0.994814
0.994763
0.994986
0.932453
0.932511
0.932507
0.932685
0.874462
0.874435
0.874506
0.87464
0.820322
0.820361
0.820368
0.820505
0.769799
0.76985
0.769848
0.769985
0.722639
0.722702
0.722685
0.722837
0.678624
0.678721
0.678665
0.678868
0.637666
0.637733
0.637714
0.637885
0.599623
0.599601
0.599672
0.599775
0.564324
0.564312
0.564393
0.564461
0.531743
0.531784
0.531809
0.531876
0.501843
0.501892
0.501914
0.501979
0.474608
0.474665
0.474687
0.474752
0.450058
0.450111
0.450138
0.450202
0.428221
0.428255
0.428299
0.42836
0.409147
0.409126
0.409224
0.409278
0.392895
0.392933
0.392968
0.393026
0.379574
0.379614
0.379656
0.379711
0.369315
0.369337
0.369409
0.369463
0.362279
0.362234
0.362397
0.362448
0.358666
0.358635
0.358781
0.358873
)
;

boundaryField
{
    inlet
    {
        type            cyclic;
    }
    outlet
    {
        type            cyclic;
    }
    fixedWalls-bottom
    {
        beta1           0.075;
        blended         0;
        type            omegaWallFunction;
        value           nonuniform List<scalar> 4(312.705 312.705 312.705 312.705);
    }
    fixedWalls-top
    {
        type            symmetry;
    }
    frontAndBack
    {
        type            empty;
    }
}


// ************************************************************************* //
