/*--------------------------------*- C++ -*----------------------------------*\
  =========                 |
  \\      /  F ield         | OpenFOAM: The Open Source CFD Toolbox
   \\    /   O peration     | Website:  https://openfoam.org
    \\  /    A nd           | Version:  10
     \\/     M anipulation  |
\*---------------------------------------------------------------------------*/
FoamFile
{
    format      ascii;
    class       volScalarField;
    location    "584";
    object      p;
}
// * * * * * * * * * * * * * * * * * * * * * * * * * * * * * * * * * * * * * //

dimensions      [0 2 -2 0 0 0 0];

internalField   nonuniform List<scalar> 
200
(
4.1562e-12
1.25108e-07
1.48262e-07
2.2842e-08
5.07995e-11
1.249e-07
1.48223e-07
2.30484e-08
3.54626e-10
1.24487e-07
1.47921e-07
2.34614e-08
8.62085e-10
1.24058e-07
1.47415e-07
2.38889e-08
1.50434e-09
1.23734e-07
1.46774e-07
2.42121e-08
2.6544e-09
1.22884e-07
1.45624e-07
2.50607e-08
4.26276e-09
1.21454e-07
1.44017e-07
2.64897e-08
5.74926e-09
1.20057e-07
1.42531e-07
2.78859e-08
6.79591e-09
1.18875e-07
1.41485e-07
2.90668e-08
7.2978e-09
1.17941e-07
1.40984e-07
2.99995e-08
7.28428e-09
1.17234e-07
1.40998e-07
3.07052e-08
6.82535e-09
1.16738e-07
1.41457e-07
3.11992e-08
6.00282e-09
1.16398e-07
1.4228e-07
3.15382e-08
4.84328e-09
1.16186e-07
1.4344e-07
3.17491e-08
3.33966e-09
1.16139e-07
1.44944e-07
3.17946e-08
1.46582e-09
1.16399e-07
1.46818e-07
3.1533e-08
-6.63124e-10
1.17335e-07
1.48947e-07
3.05958e-08
-2.68432e-09
1.19203e-07
1.50969e-07
2.8727e-08
-4.09171e-09
1.20526e-07
1.52377e-07
2.74021e-08
-4.83068e-09
1.20365e-07
1.53116e-07
2.75627e-08
-5.44968e-09
1.19637e-07
1.53736e-07
2.82898e-08
-6.77853e-09
1.18682e-07
1.55065e-07
2.92435e-08
-9.58662e-09
1.17548e-07
1.57874e-07
3.03762e-08
-1.33319e-08
1.16717e-07
1.6162e-07
3.12067e-08
-1.47897e-08
1.16571e-07
1.63079e-07
3.13517e-08
-1.23552e-08
1.16075e-07
1.60646e-07
3.18473e-08
-7.36658e-09
1.14482e-07
1.55658e-07
3.34396e-08
-6.43381e-10
1.12512e-07
1.48937e-07
3.541e-08
7.33075e-09
1.10684e-07
1.40964e-07
3.72373e-08
1.62332e-08
1.0894e-07
1.32063e-07
3.89819e-08
2.61759e-08
1.0673e-07
1.22121e-07
4.11921e-08
3.77845e-08
1.04354e-07
1.10514e-07
4.3568e-08
4.88208e-08
1.02085e-07
9.94787e-08
4.58382e-08
5.77551e-08
9.95232e-08
9.05459e-08
4.84003e-08
6.63607e-08
9.68925e-08
8.19408e-08
5.1032e-08
7.57082e-08
9.45188e-08
7.25946e-08
5.34062e-08
8.62905e-08
9.20729e-08
6.20122e-08
5.58536e-08
9.86043e-08
8.92576e-08
4.96992e-08
5.86697e-08
1.11043e-07
8.55108e-08
3.72603e-08
6.24178e-08
1.20065e-07
8.08217e-08
2.82376e-08
6.7107e-08
1.26086e-07
7.58317e-08
2.22148e-08
7.20973e-08
1.31591e-07
7.03864e-08
1.67086e-08
7.75429e-08
1.373e-07
6.46849e-08
1.09974e-08
8.32447e-08
1.43897e-07
5.9263e-08
4.39846e-09
8.86673e-08
1.52339e-07
5.45174e-08
-4.04564e-09
9.34138e-08
1.59625e-07
5.03521e-08
-1.13339e-08
9.75805e-08
1.64152e-07
4.63829e-08
-1.58623e-08
1.01551e-07
1.68485e-07
4.26308e-08
-2.01966e-08
1.05305e-07
1.73717e-07
3.94635e-08
-2.54293e-08
1.08473e-07
1.78289e-07
3.73773e-08
-3.00019e-08
1.10561e-07
)
;

boundaryField
{
    inlet
    {
        type            cyclic;
    }
    outlet
    {
        type            cyclic;
    }
    fixedWalls-bottom
    {
        type            zeroGradient;
    }
    fixedWalls-top
    {
        type            symmetry;
    }
    frontAndBack
    {
        type            empty;
    }
}


// ************************************************************************* //
