/*--------------------------------*- C++ -*----------------------------------*\
  =========                 |
  \\      /  F ield         | OpenFOAM: The Open Source CFD Toolbox
   \\    /   O peration     | Website:  https://openfoam.org
    \\  /    A nd           | Version:  10
     \\/     M anipulation  |
\*---------------------------------------------------------------------------*/
FoamFile
{
    format      ascii;
    class       surfaceScalarField;
    location    "584";
    object      phi;
}
// * * * * * * * * * * * * * * * * * * * * * * * * * * * * * * * * * * * * * //

dimensions      [0 3 -1 0 0 0 0];

internalField   nonuniform List<scalar> 
346
(
0.00265377
-6.36024e-09
0.00265377
1.61363e-10
0.00265376
5.84224e-09
-1.43198e-10
0.00735167
-1.57104e-08
0.00735167
-2.94139e-09
0.00735166
1.53981e-08
2.96169e-09
0.0104044
-2.18071e-08
0.0104044
-7.64445e-09
0.0104044
2.15876e-08
7.66867e-09
0.0124043
-2.73269e-08
0.0124043
-9.87606e-09
0.0124043
2.71737e-08
9.89886e-09
0.0139313
-3.35575e-08
0.0139313
-6.94682e-09
0.0139312
3.34438e-08
6.97137e-09
0.0152241
-3.66189e-08
0.0152241
-3.06375e-09
0.015224
3.65304e-08
3.08609e-09
0.0163915
-3.48685e-08
0.0163915
6.27244e-11
0.0163915
3.47999e-08
-3.90565e-11
0.0174871
-2.97e-08
0.0174871
3.32772e-09
0.0174871
2.96416e-08
-3.30659e-09
0.0185404
-2.28054e-08
0.0185404
6.87851e-09
0.0185404
2.2757e-08
-6.85595e-09
0.0195703
-1.5473e-08
0.0195703
1.05973e-08
0.0195703
1.54292e-08
-1.05775e-08
0.020589
-8.45269e-09
0.020589
1.41826e-08
0.020589
8.41404e-09
-1.41613e-08
0.0216054
-2.0283e-09
0.0216054
1.74151e-08
0.0216054
1.99244e-09
-1.73966e-08
0.0226259
3.72875e-09
0.0226259
1.98949e-08
0.0226259
-3.76227e-09
-1.9875e-08
0.0236556
8.75803e-09
0.0236556
2.12166e-08
0.0236556
-8.78912e-09
-2.11996e-08
0.0246984
1.27509e-08
0.0246984
2.12535e-08
0.0246984
-1.2781e-08
-2.12354e-08
0.0257575
1.51373e-08
0.0257575
2.02354e-08
0.0257575
-1.51647e-08
-2.02202e-08
0.0268356
1.53976e-08
0.0268356
1.91789e-08
0.0268356
-1.54253e-08
-1.91626e-08
0.0279352
1.37253e-08
0.0279351
2.06783e-08
0.0279351
-1.37498e-08
-2.06651e-08
0.0290582
1.17882e-08
0.0290582
2.37317e-08
0.0290582
-1.18137e-08
-2.37175e-08
0.0302068
1.13981e-08
0.0302068
2.54624e-08
0.0302068
-1.142e-08
-2.54515e-08
0.0313828
1.3047e-08
0.0313828
2.53143e-08
0.0313828
-1.30707e-08
-2.53018e-08
0.0325874
1.52494e-08
0.0325874
2.26305e-08
0.0325874
-1.5269e-08
-2.26214e-08
0.0338216
1.475e-08
0.0338216
1.64938e-08
0.0338216
-1.47718e-08
-1.64825e-08
0.0350864
7.86986e-09
0.0350864
7.42713e-09
0.0350864
-7.88714e-09
-7.41979e-09
0.0363828
-2.89444e-09
0.0363828
-2.12523e-09
0.0363828
2.87429e-09
2.13625e-09
0.0377124
-1.28103e-08
0.0377124
-1.13078e-08
0.0377124
1.2795e-08
1.13143e-08
0.0390765
-2.05951e-08
0.0390765
-2.04609e-08
0.0390765
2.05765e-08
2.04721e-08
0.0404762
-2.58467e-08
0.0404762
-2.88188e-08
0.0404762
2.58333e-08
2.88249e-08
0.0419126
-2.89691e-08
0.0419126
-3.52917e-08
0.0419126
2.89514e-08
3.53039e-08
0.0433865
-3.06493e-08
0.0433865
-3.92228e-08
0.0433865
3.06372e-08
3.92292e-08
0.0448991
-3.1291e-08
0.0448991
-4.13073e-08
0.0448991
3.12739e-08
4.13207e-08
0.0464512
-2.86238e-08
0.0464512
-4.17192e-08
0.0464512
2.86127e-08
4.17264e-08
0.0480435
-2.42038e-08
0.0480435
-4.06575e-08
0.0480435
2.41866e-08
4.06722e-08
0.049677
-2.2061e-08
0.049677
-3.96013e-08
0.049677
2.20502e-08
3.96093e-08
0.0513522
-2.27061e-08
0.0513522
-3.89597e-08
0.0513522
2.26879e-08
3.8976e-08
0.0530699
-2.53917e-08
0.0530699
-3.76639e-08
0.0530699
2.53802e-08
3.76734e-08
0.0548306
-2.85956e-08
0.0548306
-3.49486e-08
0.0548306
2.85768e-08
3.49655e-08
0.0566348
-2.91039e-08
0.0566348
-2.99119e-08
0.0566348
2.90917e-08
2.99223e-08
0.0584828
-2.51401e-08
0.0584828
-2.33667e-08
0.0584828
2.51216e-08
2.33832e-08
0.0603749
-2.10096e-08
0.0603749
-1.73596e-08
0.0603749
2.09971e-08
1.73704e-08
0.0623114
-1.97015e-08
0.0623114
-1.28773e-08
0.0623114
1.96862e-08
1.28907e-08
0.0642922
-2.016e-08
0.0642922
-1.07851e-08
0.0642922
2.01499e-08
1.07937e-08
0.0663172
-2.16755e-08
0.0663172
-1.09175e-08
0.0663172
2.16653e-08
1.09261e-08
0.0683861
-2.33955e-08
0.0683861
-1.18517e-08
0.0683861
2.33892e-08
1.18568e-08
0.0704985
-2.13808e-08
0.0704985
-1.18567e-08
0.0704985
2.13761e-08
1.18604e-08
0.0726535
-1.74051e-08
0.0726535
-1.04435e-08
0.0726535
1.74033e-08
1.04445e-08
0.0748503
-1.56209e-08
0.0748503
-8.51503e-09
0.0748503
1.56217e-08
8.51378e-09
0.0770872
-1.43649e-08
0.0770872
-6.36391e-09
0.0770872
1.43701e-08
6.35857e-09
0.0793625
-9.42967e-09
0.0793625
-3.62527e-09
0.0793625
9.43355e-09
3.62139e-09
0.0816736
0.0816736
0.0816736
)
;

boundaryField
{
    inlet
    {
        type            cyclic;
        value           nonuniform List<scalar> 
50
(
-0.0816736
-0.0793625
-0.0770872
-0.0748503
-0.0726535
-0.0704985
-0.0683861
-0.0663172
-0.0642922
-0.0623114
-0.0603749
-0.0584828
-0.0566348
-0.0548306
-0.0530699
-0.0513522
-0.049677
-0.0480435
-0.0464512
-0.0448991
-0.0433865
-0.0419126
-0.0404762
-0.0390765
-0.0377124
-0.0363828
-0.0350864
-0.0338216
-0.0325874
-0.0313828
-0.0302068
-0.0290582
-0.0279351
-0.0268356
-0.0257575
-0.0246984
-0.0236556
-0.0226259
-0.0216054
-0.020589
-0.0195703
-0.0185405
-0.0174871
-0.0163915
-0.0152241
-0.0139313
-0.0124043
-0.0104044
-0.00735166
-0.00265376
)
;
    }
    outlet
    {
        type            cyclic;
        value           nonuniform List<scalar> 
50
(
0.0816736
0.0793625
0.0770872
0.0748503
0.0726535
0.0704985
0.0683861
0.0663172
0.0642922
0.0623114
0.0603749
0.0584828
0.0566348
0.0548306
0.0530699
0.0513522
0.049677
0.0480435
0.0464512
0.0448991
0.0433865
0.0419126
0.0404762
0.0390765
0.0377124
0.0363828
0.0350864
0.0338216
0.0325874
0.0313828
0.0302068
0.0290582
0.0279351
0.0268356
0.0257575
0.0246984
0.0236556
0.0226259
0.0216054
0.020589
0.0195703
0.0185405
0.0174871
0.0163915
0.0152241
0.0139313
0.0124043
0.0104044
0.00735166
0.00265376
)
;
    }
    fixedWalls-bottom
    {
        type            calculated;
        value           uniform 0;
    }
    fixedWalls-top
    {
        type            symmetry;
        value           uniform 0;
    }
    frontAndBack
    {
        type            empty;
        value           nonuniform List<scalar> 0();
    }
}


// ************************************************************************* //
