/*--------------------------------*- C++ -*----------------------------------*\
  =========                 |
  \\      /  F ield         | OpenFOAM: The Open Source CFD Toolbox
   \\    /   O peration     | Website:  https://openfoam.org
    \\  /    A nd           | Version:  10
     \\/     M anipulation  |
\*---------------------------------------------------------------------------*/
FoamFile
{
    format      ascii;
    class       volSymmTensorField;
    location    "584";
    object      R;
}
// * * * * * * * * * * * * * * * * * * * * * * * * * * * * * * * * * * * * * //

dimensions      [0 2 -2 0 0 0 0];

internalField   nonuniform List<symmTensor> 
200
(
(6.57235e-05 -9.04179e-06 -0 6.57235e-05 -0 6.57235e-05)
(6.57231e-05 -9.04175e-06 -0 6.57231e-05 -0 6.57231e-05)
(6.57224e-05 -9.04164e-06 -0 6.57224e-05 -0 6.57224e-05)
(6.57209e-05 -9.04141e-06 -0 6.57209e-05 -0 6.57209e-05)
(0.00156728 -0.000643171 -0 0.00156728 -0 0.00156728)
(0.00156728 -0.000643166 -0 0.00156728 -0 0.00156728)
(0.00156726 -0.00064316 -0 0.00156726 -0 0.00156726)
(0.00156723 -0.000643147 -0 0.00156723 -0 0.00156723)
(0.00357632 -0.00166387 -0 0.00357632 -0 0.00357632)
(0.00357631 -0.00166387 -0 0.00357631 -0 0.00357631)
(0.00357628 -0.00166385 -0 0.00357628 -0 0.00357628)
(0.00357623 -0.00166383 -0 0.00357623 -0 0.00357623)
(0.00431402 -0.00200606 -0 0.00431402 -0 0.00431402)
(0.00431402 -0.00200606 -0 0.00431402 -0 0.00431402)
(0.00431398 -0.00200604 -0 0.00431398 -0 0.00431398)
(0.00431392 -0.00200602 -0 0.00431392 -0 0.00431392)
(0.00461294 -0.00214502 -0 0.00461294 -0 0.00461294)
(0.00461294 -0.00214502 -0 0.00461294 -0 0.00461294)
(0.00461291 -0.002145 -0 0.00461291 -0 0.00461291)
(0.00461285 -0.00214497 -0 0.00461285 -0 0.00461285)
(0.00474413 -0.00219795 -0 0.00474413 -0 0.00474413)
(0.00474413 -0.00219792 -0 0.00474413 -0 0.00474413)
(0.0047441 -0.00219789 -0 0.0047441 -0 0.0047441)
(0.00474404 -0.00219786 -0 0.00474404 -0 0.00474404)
(0.0048005 -0.00221866 -0 0.0048005 -0 0.0048005)
(0.0048005 -0.00221863 -0 0.0048005 -0 0.0048005)
(0.00480048 -0.00221861 -0 0.00480048 -0 0.00480048)
(0.00480044 -0.00221859 -0 0.00480044 -0 0.00480044)
(0.00481655 -0.00222506 -0 0.00481655 -0 0.00481655)
(0.00481655 -0.00222504 -0 0.00481655 -0 0.00481655)
(0.00481653 -0.00222501 -0 0.00481653 -0 0.00481653)
(0.0048165 -0.002225 -0 0.0048165 -0 0.0048165)
(0.00480766 -0.00222103 -0 0.00480766 -0 0.00480766)
(0.00480766 -0.00222102 -0 0.00480766 -0 0.00480766)
(0.00480765 -0.002221 -0 0.00480765 -0 0.00480765)
(0.00480763 -0.002221 -0 0.00480763 -0 0.00480763)
(0.00478214 -0.00221001 -0 0.00478213 -0 0.00478214)
(0.00478214 -0.00221001 -0 0.00478214 -0 0.00478214)
(0.00478213 -0.00220999 -0 0.00478213 -0 0.00478213)
(0.00478211 -0.00220999 -0 0.00478212 -0 0.00478211)
(0.00474479 -0.00219395 -0 0.00474478 -0 0.00474478)
(0.00474479 -0.00219395 -0 0.00474478 -0 0.00474478)
(0.00474478 -0.00219394 -0 0.00474478 -0 0.00474478)
(0.00474477 -0.00219395 -0 0.00474477 -0 0.00474477)
(0.00469858 -0.00217404 -0 0.00469858 -0 0.00469858)
(0.00469858 -0.00217404 -0 0.00469858 -0 0.00469858)
(0.00469858 -0.00217404 -0 0.00469858 -0 0.00469858)
(0.00469858 -0.00217405 -0 0.00469858 -0 0.00469858)
(0.00464546 -0.00215104 -0 0.00464546 -0 0.00464546)
(0.00464545 -0.00215105 -0 0.00464545 -0 0.00464545)
(0.00464546 -0.00215105 -0 0.00464546 -0 0.00464546)
(0.00464546 -0.00215107 -0 0.00464546 -0 0.00464546)
(0.00458671 -0.00212546 -0 0.00458671 -0 0.00458671)
(0.0045867 -0.00212547 -0 0.0045867 -0 0.0045867)
(0.00458671 -0.00212548 -0 0.00458671 -0 0.00458671)
(0.00458671 -0.0021255 -0 0.00458671 -0 0.00458671)
(0.00452325 -0.00209764 -0 0.00452324 -0 0.00452324)
(0.00452323 -0.00209767 -0 0.00452323 -0 0.00452323)
(0.00452325 -0.00209767 -0 0.00452325 -0 0.00452325)
(0.00452325 -0.00209769 -0 0.00452325 -0 0.00452325)
(0.00445572 -0.00206784 -0 0.00445572 -0 0.00445572)
(0.00445571 -0.00206786 -0 0.00445571 -0 0.00445571)
(0.00445573 -0.00206787 -0 0.00445573 -0 0.00445573)
(0.00445572 -0.00206789 -0 0.00445572 -0 0.00445572)
(0.00438462 -0.0020362 -0 0.00438462 -0 0.00438462)
(0.0043846 -0.00203623 -0 0.00438461 -0 0.00438461)
(0.00438463 -0.00203624 -0 0.00438463 -0 0.00438463)
(0.00438462 -0.00203625 -0 0.00438462 -0 0.00438462)
(0.00431032 -0.00200311 -0 0.00431032 -0 0.00431032)
(0.0043103 -0.00200314 -0 0.0043103 -0 0.0043103)
(0.00431032 -0.00200317 -0 0.00431032 -0 0.00431032)
(0.00431032 -0.00200316 -0 0.00431032 -0 0.00431032)
(0.00423306 -0.00196837 -0 0.00423306 -0 0.00423306)
(0.00423305 -0.00196837 -0 0.00423304 -0 0.00423304)
(0.00423306 -0.00196837 -0 0.00423306 -0 0.00423306)
(0.00423306 -0.00196837 -0 0.00423306 -0 0.00423306)
(0.00415298 -0.00193114 -0 0.00415298 -0 0.00415298)
(0.00415297 -0.00193113 -0 0.00415296 -0 0.00415296)
(0.00415298 -0.00193114 -0 0.00415298 -0 0.00415298)
(0.00415298 -0.00193113 -0 0.00415298 -0 0.00415298)
(0.00407019 -0.00189264 -0 0.00407019 -0 0.00407019)
(0.00407017 -0.00189263 -0 0.00407017 -0 0.00407017)
(0.00407019 -0.00189264 -0 0.00407019 -0 0.00407019)
(0.00407018 -0.00189264 -0 0.00407018 -0 0.00407018)
(0.00398487 -0.00185296 -0 0.00398486 -0 0.00398487)
(0.00398485 -0.00185296 -0 0.00398486 -0 0.00398486)
(0.00398487 -0.00185296 -0 0.00398487 -0 0.00398487)
(0.00398486 -0.00185296 -0 0.00398486 -0 0.00398486)
(0.00389729 -0.00181224 -0 0.0038973 -0 0.00389729)
(0.00389729 -0.00181224 -0 0.00389729 -0 0.00389729)
(0.0038973 -0.00181224 -0 0.0038973 -0 0.0038973)
(0.00389729 -0.00181224 -0 0.00389728 -0 0.00389729)
(0.00380781 -0.00177063 -0 0.00380782 -0 0.00380781)
(0.00380781 -0.00177063 -0 0.00380782 -0 0.00380781)
(0.00380782 -0.00177063 -0 0.00380781 -0 0.00380782)
(0.00380781 -0.00177063 -0 0.0038078 -0 0.0038078)
(0.00371667 -0.00172699 -0 0.00371668 -0 0.00371668)
(0.00371668 -0.00172693 -0 0.00371669 -0 0.00371669)
(0.00371669 -0.00172699 -0 0.00371668 -0 0.00371668)
(0.00371666 -0.00172682 -0 0.00371666 -0 0.00371666)
(0.00362402 -0.00168088 -0 0.00362403 -0 0.00362402)
(0.00362402 -0.00168079 -0 0.00362403 -0 0.00362402)
(0.00362403 -0.00168083 -0 0.00362402 -0 0.00362403)
(0.003624 -0.00168065 -0 0.00362399 -0 0.003624)
(0.00352999 -0.00163382 -0 0.00353 -0 0.00352999)
(0.00352999 -0.00163371 -0 0.00353 -0 0.00352999)
(0.00353 -0.00163376 -0 0.00353 -0 0.00353)
(0.00352997 -0.00163353 -0 0.00352996 -0 0.00352996)
(0.00343479 -0.00158521 -0 0.00343479 -0 0.00343479)
(0.00343478 -0.00158508 -0 0.00343479 -0 0.00343479)
(0.0034348 -0.00158513 -0 0.00343479 -0 0.0034348)
(0.00343475 -0.00158487 -0 0.00343475 -0 0.00343475)
(0.00333862 -0.00153502 -0 0.00333862 -0 0.00333862)
(0.00333861 -0.00153489 -0 0.00333862 -0 0.00333862)
(0.00333863 -0.00153494 -0 0.00333863 -0 0.00333863)
(0.00333858 -0.00153465 -0 0.00333857 -0 0.00333858)
(0.00324172 -0.00148322 -0 0.00324172 -0 0.00324172)
(0.00324171 -0.0014831 -0 0.00324172 -0 0.00324172)
(0.00324173 -0.00148314 -0 0.00324173 -0 0.00324173)
(0.00324167 -0.00148284 -0 0.00324167 -0 0.00324167)
(0.00314435 -0.0014298 -0 0.00314435 -0 0.00314435)
(0.00314435 -0.00142969 -0 0.00314435 -0 0.00314435)
(0.00314436 -0.0014297 -0 0.00314436 -0 0.00314436)
(0.0031443 -0.00142942 -0 0.0031443 -0 0.0031443)
(0.00304679 -0.00137467 -0 0.00304679 -0 0.00304679)
(0.0030468 -0.00137466 -0 0.0030468 -0 0.0030468)
(0.0030468 -0.00137459 -0 0.00304681 -0 0.00304681)
(0.00304674 -0.00137434 -0 0.00304674 -0 0.00304674)
(0.00294938 -0.00131792 -0 0.00294938 -0 0.00294938)
(0.00294938 -0.00131783 -0 0.00294937 -0 0.00294937)
(0.00294939 -0.00131784 -0 0.00294939 -0 0.00294939)
(0.00294931 -0.00131756 -0 0.00294931 -0 0.00294931)
(0.00285245 -0.00125941 -0 0.00285244 -0 0.00285245)
(0.00285244 -0.00125933 -0 0.00285244 -0 0.00285244)
(0.00285245 -0.00125933 -0 0.00285246 -0 0.00285245)
(0.00285237 -0.00125905 -0 0.00285238 -0 0.00285237)
(0.00275638 -0.00119912 -0 0.00275638 -0 0.00275638)
(0.00275638 -0.00119905 -0 0.00275638 -0 0.00275638)
(0.00275638 -0.00119904 -0 0.00275638 -0 0.00275638)
(0.00275632 -0.00119877 -0 0.00275632 -0 0.00275632)
(0.0026616 -0.00113705 -0 0.0026616 -0 0.0026616)
(0.00266163 -0.00113695 -0 0.00266162 -0 0.00266163)
(0.00266161 -0.00113698 -0 0.00266161 -0 0.00266161)
(0.00266155 -0.00113666 -0 0.00266155 -0 0.00266155)
(0.0025686 -0.00107308 -0 0.0025686 -0 0.0025686)
(0.00256862 -0.00107299 -0 0.00256862 -0 0.00256862)
(0.00256861 -0.00107299 -0 0.00256861 -0 0.00256861)
(0.00256855 -0.00107272 -0 0.00256856 -0 0.00256856)
(0.00247786 -0.00100716 -0 0.00247786 -0 0.00247786)
(0.00247788 -0.00100716 -0 0.00247787 -0 0.00247787)
(0.00247787 -0.00100707 -0 0.00247787 -0 0.00247787)
(0.00247782 -0.00100688 -0 0.00247782 -0 0.00247782)
(0.00238993 -0.000939341 -0 0.00238993 -0 0.00238993)
(0.00238994 -0.000939321 -0 0.00238993 -0 0.00238994)
(0.00238994 -0.000939229 -0 0.00238994 -0 0.00238994)
(0.00238989 -0.000939076 -0 0.0023899 -0 0.00238989)
(0.00230538 -0.000869495 -0 0.00230537 -0 0.00230538)
(0.00230538 -0.000869433 -0 0.00230538 -0 0.00230538)
(0.00230538 -0.000869402 -0 0.00230539 -0 0.00230539)
(0.00230534 -0.000869256 -0 0.00230535 -0 0.00230534)
(0.00222482 -0.000797589 -0 0.00222482 -0 0.00222482)
(0.00222482 -0.000797535 -0 0.00222481 -0 0.00222482)
(0.00222482 -0.000797496 -0 0.00222482 -0 0.00222482)
(0.00222478 -0.000797366 -0 0.00222479 -0 0.00222479)
(0.0021489 -0.000723569 -0 0.0021489 -0 0.0021489)
(0.00214889 -0.000723503 -0 0.00214889 -0 0.00214889)
(0.0021489 -0.000723468 -0 0.0021489 -0 0.0021489)
(0.00214886 -0.00072335 -0 0.00214886 -0 0.00214886)
(0.00207829 -0.00064736 -0 0.00207829 -0 0.00207829)
(0.00207828 -0.000647296 -0 0.00207828 -0 0.00207828)
(0.00207829 -0.000647255 -0 0.00207829 -0 0.00207829)
(0.00207825 -0.000647152 -0 0.00207825 -0 0.00207825)
(0.00201372 -0.000568907 -0 0.00201372 -0 0.00201372)
(0.00201369 -0.000568843 -0 0.00201369 -0 0.00201369)
(0.0020137 -0.000568798 -0 0.0020137 -0 0.0020137)
(0.00201366 -0.00056871 -0 0.00201366 -0 0.00201366)
(0.00195588 -0.000488135 -0 0.00195588 -0 0.00195588)
(0.00195585 -0.000488127 -0 0.00195585 -0 0.00195585)
(0.00195588 -0.000488034 -0 0.00195588 -0 0.00195588)
(0.00195582 -0.000487959 -0 0.00195582 -0 0.00195582)
(0.00190556 -0.000404993 -0 0.00190555 -0 0.00190555)
(0.00190552 -0.000404943 -0 0.00190552 -0 0.00190552)
(0.00190555 -0.000404912 -0 0.00190556 -0 0.00190556)
(0.00190548 -0.000404839 -0 0.00190549 -0 0.00190548)
(0.00186353 -0.000319406 -0 0.00186353 -0 0.00186353)
(0.00186349 -0.000319375 -0 0.00186349 -0 0.00186349)
(0.00186352 -0.000319335 -0 0.00186352 -0 0.00186352)
(0.00186346 -0.000319279 -0 0.00186346 -0 0.00186346)
(0.00183063 -0.000231309 -0 0.00183063 -0 0.00183063)
(0.00183059 -0.000231285 -0 0.00183059 -0 0.00183059)
(0.00183061 -0.000231246 -0 0.00183061 -0 0.00183061)
(0.00183057 -0.000231211 -0 0.00183057 -0 0.00183057)
(0.00180773 -0.00014063 -0 0.00180773 -0 0.00180773)
(0.00180771 -0.000140629 -0 0.00180771 -0 0.00180771)
(0.00180772 -0.00014058 -0 0.00180772 -0 0.00180772)
(0.00180768 -0.000140566 -0 0.00180768 -0 0.00180768)
(0.0017958 -4.73183e-05 -0 0.0017958 -0 0.0017958)
(0.00179577 -4.73135e-05 -0 0.00179576 -0 0.00179576)
(0.00179577 -4.72999e-05 -0 0.00179578 -0 0.00179577)
(0.00179573 -4.72924e-05 -0 0.00179573 -0 0.00179573)
)
;

boundaryField
{
    inlet
    {
        type            cyclic;
    }
    outlet
    {
        type            cyclic;
    }
    fixedWalls-bottom
    {
        type            kqRWallFunction;
        value           nonuniform List<symmTensor> 4((6.57235e-05 -0 -0 6.57235e-05 -0 6.57235e-05) (6.57231e-05 -0 -0 6.57231e-05 -0 6.57231e-05) (6.57224e-05 -0 -0 6.57224e-05 -0 6.57224e-05) (6.57209e-05 -0 -0 6.57209e-05 -0 6.57209e-05));
    }
    fixedWalls-top
    {
        type            symmetry;
    }
    frontAndBack
    {
        type            empty;
    }
}


// ************************************************************************* //
