/*--------------------------------*- C++ -*----------------------------------*\
  =========                 |
  \\      /  F ield         | OpenFOAM: The Open Source CFD Toolbox
   \\    /   O peration     | Website:  https://openfoam.org
    \\  /    A nd           | Version:  10
     \\/     M anipulation  |
\*---------------------------------------------------------------------------*/
FoamFile
{
    format      ascii;
    class       volVectorField;
    location    "584";
    object      U;
}
// * * * * * * * * * * * * * * * * * * * * * * * * * * * * * * * * * * * * * //

dimensions      [0 1 -1 0 0 0 0];

internalField   nonuniform List<vector> 
200
(
(0.144027 -3.39267e-09 0)
(0.144027 1.59857e-09 0)
(0.144027 3.21887e-09 0)
(0.144026 -1.59466e-09 0)
(0.387864 -1.17302e-08 0)
(0.387864 -1.79496e-09 0)
(0.387864 1.11779e-08 0)
(0.387863 1.81527e-09 0)
(0.533608 -1.81643e-08 0)
(0.533608 -6.73773e-09 0)
(0.533608 1.79032e-08 0)
(0.533608 6.75809e-09 0)
(0.618433 -2.46512e-08 0)
(0.618433 -9.21863e-09 0)
(0.618433 2.44728e-08 0)
(0.618432 9.24019e-09 0)
(0.675185 -3.13191e-08 0)
(0.675185 -7.97922e-09 0)
(0.675185 3.11898e-08 0)
(0.675185 8.00249e-09 0)
(0.717259 -3.52206e-08 0)
(0.717259 -6.21303e-09 0)
(0.717259 3.51217e-08 0)
(0.717259 6.23625e-09 0)
(0.750721 -3.63197e-08 0)
(0.750721 -1.74057e-09 0)
(0.75072 3.62424e-08 0)
(0.750721 1.76343e-09 0)
(0.778555 -3.27516e-08 0)
(0.778555 1.5728e-09 0)
(0.778555 3.26886e-08 0)
(0.778555 -1.55063e-09 0)
(0.802426 -2.65314e-08 0)
(0.802426 5.16293e-09 0)
(0.802426 2.64784e-08 0)
(0.802427 -5.14117e-09 0)
(0.823369 -1.91839e-08 0)
(0.823369 8.77309e-09 0)
(0.823369 1.91381e-08 0)
(0.82337 -8.752e-09 0)
(0.842066 -1.19117e-08 0)
(0.842065 1.25543e-08 0)
(0.842065 1.18707e-08 0)
(0.842066 -1.25337e-08 0)
(0.858986 -5.1161e-09 0)
(0.858985 1.60218e-08 0)
(0.858985 5.07902e-09 0)
(0.858986 -1.6002e-08 0)
(0.874467 1.0184e-09 0)
(0.874467 1.89188e-08 0)
(0.874467 -1.05297e-09 0)
(0.874468 -1.88996e-08 0)
(0.88876 6.48091e-09 0)
(0.88876 2.08346e-08 0)
(0.88876 -6.51311e-09 0)
(0.88876 -2.08162e-08 0)
(0.902053 1.10867e-08 0)
(0.902053 2.14498e-08 0)
(0.902053 -1.11173e-08 0)
(0.902053 -2.14323e-08 0)
(0.914492 1.43135e-08 0)
(0.914492 2.06718e-08 0)
(0.914492 -1.43422e-08 0)
(0.914492 -2.06552e-08 0)
(0.926192 1.5582e-08 0)
(0.926192 1.95641e-08 0)
(0.926192 -1.56095e-08 0)
(0.926192 -1.95483e-08 0)
(0.937246 1.46668e-08 0)
(0.937246 2.04804e-08 0)
(0.937246 -1.46929e-08 0)
(0.937246 -2.04657e-08 0)
(0.947729 1.27605e-08 0)
(0.947729 2.18188e-08 0)
(0.947729 -1.27854e-08 0)
(0.947729 -2.18051e-08 0)
(0.95771 1.14261e-08 0)
(0.957709 2.46439e-08 0)
(0.957709 -1.14498e-08 0)
(0.957709 -2.46314e-08 0)
(0.967238 1.22246e-08 0)
(0.967238 2.59099e-08 0)
(0.967238 -1.22473e-08 0)
(0.967238 -2.58981e-08 0)
(0.976348 1.45093e-08 0)
(0.976348 2.46143e-08 0)
(0.976348 -1.45309e-08 0)
(0.976348 -2.46035e-08 0)
(0.985059 1.53228e-08 0)
(0.985059 2.01151e-08 0)
(0.98506 -1.53435e-08 0)
(0.985059 -2.01049e-08 0)
(0.993389 1.10735e-08 0)
(0.993389 1.24776e-08 0)
(0.99339 -1.10931e-08 0)
(0.993389 -1.24683e-08 0)
(1.00136 3.36891e-09 0)
(1.00136 3.19791e-09 0)
(1.00136 -3.38767e-09 0)
(1.00136 -3.18892e-09 0)
(1.009 -7.77859e-09 0)
(1.009 -7.06801e-09 0)
(1.009 7.76078e-09 0)
(1.009 7.07681e-09 0)
(1.01633 -1.71142e-08 0)
(1.01633 -1.63543e-08 0)
(1.01633 1.70973e-08 0)
(1.01633 1.63632e-08 0)
(1.02337 -2.36771e-08 0)
(1.02337 -2.50963e-08 0)
(1.02337 2.36612e-08 0)
(1.02337 2.51052e-08 0)
(1.03013 -2.77894e-08 0)
(1.03013 -3.24755e-08 0)
(1.03013 2.77741e-08 0)
(1.03013 3.24847e-08 0)
(1.03661 -3.03218e-08 0)
(1.03661 -3.7681e-08 0)
(1.03661 3.03069e-08 0)
(1.03661 3.76903e-08 0)
(1.04282 -3.15693e-08 0)
(1.04282 -4.11053e-08 0)
(1.04282 3.15545e-08 0)
(1.04282 4.1115e-08 0)
(1.04877 -2.91393e-08 0)
(1.04877 -4.17888e-08 0)
(1.04877 2.91246e-08 0)
(1.04877 4.17987e-08 0)
(1.05447 -2.67651e-08 0)
(1.05447 -4.13575e-08 0)
(1.05447 2.67503e-08 0)
(1.05447 4.13677e-08 0)
(1.0599 -2.28935e-08 0)
(1.0599 -4.01741e-08 0)
(1.0599 2.28786e-08 0)
(1.0599 4.01848e-08 0)
(1.06508 -2.20547e-08 0)
(1.06508 -3.92642e-08 0)
(1.06508 2.20396e-08 0)
(1.06508 3.92755e-08 0)
(1.07001 -2.38266e-08 0)
(1.07001 -3.83531e-08 0)
(1.07001 2.38111e-08 0)
(1.07001 3.83654e-08 0)
(1.07467 -2.72743e-08 0)
(1.07467 -3.68343e-08 0)
(1.07467 2.72589e-08 0)
(1.07467 3.68472e-08 0)
(1.07906 -2.84747e-08 0)
(1.07906 -3.26382e-08 0)
(1.07906 2.84594e-08 0)
(1.07906 3.2652e-08 0)
(1.08319 -2.69015e-08 0)
(1.08319 -2.70497e-08 0)
(1.08319 2.68869e-08 0)
(1.08319 2.70635e-08 0)
(1.08704 -2.38684e-08 0)
(1.08704 -1.99913e-08 0)
(1.08704 2.3854e-08 0)
(1.08704 2.00055e-08 0)
(1.09061 -2.0264e-08 0)
(1.09061 -1.44704e-08 0)
(1.09061 2.02509e-08 0)
(1.09061 1.44831e-08 0)
(1.09389 -1.97788e-08 0)
(1.09389 -1.14154e-08 0)
(1.09389 1.97665e-08 0)
(1.09389 1.14268e-08 0)
(1.09687 -2.12179e-08 0)
(1.09687 -1.06612e-08 0)
(1.09687 2.12077e-08 0)
(1.09687 1.067e-08 0)
(1.09954 -2.30301e-08 0)
(1.09954 -1.15612e-08 0)
(1.09954 2.30219e-08 0)
(1.09954 1.15683e-08 0)
(1.10188 -2.12317e-08 0)
(1.10188 -1.20636e-08 0)
(1.10188 2.12263e-08 0)
(1.10188 1.20684e-08 0)
(1.10389 -2.00682e-08 0)
(1.10389 -1.12706e-08 0)
(1.10389 2.00657e-08 0)
(1.10389 1.12735e-08 0)
(1.10554 -1.68792e-08 0)
(1.10554 -9.56357e-09 0)
(1.10554 1.68796e-08 0)
(1.10554 9.56404e-09 0)
(1.10682 -1.53335e-08 0)
(1.10682 -7.71053e-09 0)
(1.10682 1.53372e-08 0)
(1.10682 7.708e-09 0)
(1.1077 -1.1968e-08 0)
(1.1077 -5.42236e-09 0)
(1.1077 1.19701e-08 0)
(1.1077 5.41537e-09 0)
(1.10816 -5.04052e-09 0)
(1.10816 -1.87737e-09 0)
(1.10816 5.04415e-09 0)
(1.10816 1.87727e-09 0)
)
;

boundaryField
{
    inlet
    {
        type            cyclic;
    }
    outlet
    {
        type            cyclic;
    }
    fixedWalls-bottom
    {
        type            noSlip;
    }
    fixedWalls-top
    {
        type            symmetry;
    }
    frontAndBack
    {
        type            empty;
    }
}


// ************************************************************************* //
