/*--------------------------------*- C++ -*----------------------------------*\
  =========                 |
  \\      /  F ield         | OpenFOAM: The Open Source CFD Toolbox
   \\    /   O peration     | Website:  https://openfoam.org
    \\  /    A nd           | Version:  10
     \\/     M anipulation  |
\*---------------------------------------------------------------------------*/
FoamFile
{
    format      ascii;
    class       volScalarField;
    location    "3680";
    object      k;
}
// * * * * * * * * * * * * * * * * * * * * * * * * * * * * * * * * * * * * * //

dimensions      [0 2 -2 0 0 0 0];

internalField   nonuniform List<scalar> 
400
(
8.71271e-10
8.71153e-10
8.71159e-10
8.71282e-10
2.61407e-08
2.61371e-08
2.61373e-08
2.6141e-08
1.85109e-07
1.85084e-07
1.85085e-07
1.85112e-07
6.72979e-07
6.72888e-07
6.72893e-07
6.72991e-07
1.74136e-06
1.74113e-06
1.74114e-06
1.74139e-06
3.68786e-06
3.68736e-06
3.68739e-06
3.68793e-06
6.85329e-06
6.85236e-06
6.85241e-06
6.85342e-06
1.1621e-05
1.16194e-05
1.16195e-05
1.16212e-05
1.84167e-05
1.84142e-05
1.84143e-05
1.84171e-05
2.77076e-05
2.77039e-05
2.77041e-05
2.77083e-05
4.00014e-05
3.9996e-05
3.99963e-05
4.00024e-05
5.58428e-05
5.58352e-05
5.58357e-05
5.58443e-05
7.58088e-05
7.57986e-05
7.57993e-05
7.58111e-05
0.000100502
0.000100488
0.000100489
0.000100505
0.000130537
0.000130519
0.000130521
0.000130542
0.000166531
0.000166509
0.000166511
0.000166538
0.000209083
0.000209054
0.000209057
0.000209092
0.000258749
0.000258715
0.000258718
0.000258761
0.000316024
0.000315982
0.000315987
0.000316041
0.000381308
0.000381258
0.000381264
0.000381329
0.000454878
0.000454818
0.000454826
0.000454905
0.000536864
0.000536794
0.000536804
0.000536898
0.00062722
0.00062714
0.000627151
0.000627263
0.000725712
0.000725621
0.000725635
0.000725765
0.000831904
0.000831803
0.000831818
0.000831967
0.000945164
0.000945052
0.000945069
0.000945238
0.00106467
0.00106455
0.00106457
0.00106476
0.00118945
0.00118932
0.00118933
0.00118954
0.00131838
0.00131824
0.00131825
0.00131848
0.00145026
0.00145011
0.00145012
0.00145037
0.00158383
0.00158367
0.00158368
0.00158393
0.00171781
0.00171765
0.00171765
0.00171791
0.001851
0.00185084
0.00185083
0.00185109
0.00198254
0.00198238
0.00198236
0.00198262
0.00211179
0.00211162
0.00211159
0.00211186
0.00223809
0.00223793
0.00223789
0.00223816
0.00236084
0.00236069
0.00236064
0.00236091
0.00247951
0.00247936
0.0024793
0.00247957
0.0025936
0.00259346
0.00259339
0.00259366
0.00270269
0.00270256
0.00270248
0.00270275
0.00280643
0.00280631
0.00280622
0.00280648
0.00290452
0.00290441
0.00290431
0.00290457
0.00299672
0.00299662
0.00299651
0.00299676
0.00308284
0.00308275
0.00308264
0.00308288
0.00316277
0.00316268
0.00316257
0.0031628
0.0032364
0.00323633
0.00323621
0.00323643
0.0033037
0.00330364
0.00330352
0.00330372
0.00336465
0.00336459
0.00336447
0.00336467
0.00341925
0.00341919
0.00341907
0.00341926
0.00346751
0.00346746
0.00346735
0.00346752
0.00350945
0.00350941
0.00350929
0.00350946
0.00354507
0.00354502
0.00354491
0.00354508
0.00357433
0.00357429
0.00357418
0.00357434
0.00359716
0.00359712
0.00359702
0.00359718
0.00361367
0.00361363
0.00361353
0.00361369
0.00362422
0.00362418
0.00362409
0.00362424
0.00362909
0.00362906
0.00362897
0.00362911
0.00362857
0.00362854
0.00362845
0.00362858
0.0036229
0.00362287
0.0036228
0.00362291
0.00361234
0.00361231
0.00361224
0.00361235
0.00359711
0.00359709
0.00359702
0.00359711
0.00357741
0.00357739
0.00357734
0.00357741
0.00355343
0.00355342
0.00355337
0.00355344
0.00352534
0.00352533
0.00352529
0.00352534
0.00349328
0.00349327
0.00349324
0.00349328
0.00345736
0.00345736
0.00345733
0.00345736
0.00341771
0.00341771
0.00341769
0.00341771
0.00337442
0.00337442
0.00337441
0.00337441
0.00332758
0.00332758
0.00332756
0.00332755
0.00327726
0.00327726
0.00327724
0.00327723
0.00322354
0.00322354
0.00322353
0.0032235
0.00316649
0.0031665
0.00316649
0.00316645
0.0031062
0.0031062
0.00310619
0.00310615
0.00304273
0.00304273
0.00304272
0.00304267
0.00297615
0.00297615
0.00297614
0.00297608
0.00290652
0.00290653
0.00290651
0.00290644
0.00283423
0.00283423
0.00283421
0.00283412
0.00275968
0.00275967
0.00275964
0.00275953
0.00268276
0.00268277
0.00268274
0.00268263
0.00260335
0.00260335
0.00260333
0.00260325
0.00252144
0.00252144
0.00252143
0.00252138
0.00243721
0.00243722
0.0024372
0.00243719
0.00235094
0.00235095
0.00235092
0.00235095
0.00226301
0.00226301
0.00226298
0.00226302
0.00217386
0.00217386
0.00217382
0.00217388
0.00208405
0.00208403
0.002084
0.00208407
0.00199417
0.00199415
0.00199411
0.0019942
0.00190491
0.0019049
0.00190485
0.00190494
0.00181703
0.00181701
0.00181696
0.00181706
0.00173132
0.00173131
0.00173125
0.00173135
0.00164866
0.00164863
0.00164859
0.00164868
0.00156994
0.00156991
0.00156987
0.00156996
0.00149613
0.00149607
0.00149606
0.00149615
0.0014282
0.00142811
0.00142813
0.00142821
0.00136713
0.00136703
0.00136705
0.00136714
0.00131387
0.00131376
0.00131379
0.00131388
0.00126916
0.00126905
0.00126907
0.00126917
0.0012337
0.0012336
0.00123362
0.00123372
0.001209
0.00120889
0.00120891
0.00120901
0.00119632
0.00119622
0.00119623
0.00119633
)
;

boundaryField
{
    inlet
    {
        type            cyclic;
    }
    outlet
    {
        type            cyclic;
    }
    fixedWalls-bottom
    {
        type            kqRWallFunction;
        value           nonuniform List<scalar> 4(8.71271e-10 8.71153e-10 8.71159e-10 8.71282e-10);
    }
    fixedWalls-top
    {
        type            symmetry;
    }
    frontAndBack
    {
        type            empty;
    }
}


// ************************************************************************* //
