/*--------------------------------*- C++ -*----------------------------------*\
  =========                 |
  \\      /  F ield         | OpenFOAM: The Open Source CFD Toolbox
   \\    /   O peration     | Website:  https://openfoam.org
    \\  /    A nd           | Version:  10
     \\/     M anipulation  |
\*---------------------------------------------------------------------------*/
FoamFile
{
    format      ascii;
    class       volScalarField;
    location    "3680";
    object      nut;
}
// * * * * * * * * * * * * * * * * * * * * * * * * * * * * * * * * * * * * * //

dimensions      [0 2 -1 0 0 0 0];

internalField   nonuniform List<scalar> 
400
(
2.78642e-14
2.78604e-14
2.78606e-14
2.78646e-14
4.88834e-12
4.88768e-12
4.88772e-12
4.88837e-12
1.02896e-10
1.02882e-10
1.02883e-10
1.02897e-10
7.96354e-10
7.96247e-10
7.96252e-10
7.96368e-10
3.64306e-09
3.64257e-09
3.64259e-09
3.64312e-09
1.21612e-08
1.21595e-08
1.21596e-08
1.21614e-08
3.29848e-08
3.29803e-08
3.29806e-08
3.29853e-08
7.72775e-08
7.7267e-08
7.72676e-08
7.72787e-08
1.62406e-07
1.62384e-07
1.62385e-07
1.62409e-07
3.13858e-07
3.13815e-07
3.13818e-07
3.13863e-07
5.67352e-07
5.67274e-07
5.67279e-07
5.67362e-07
9.71057e-07
9.70923e-07
9.70933e-07
9.71076e-07
1.58777e-06
1.58755e-06
1.58757e-06
1.5878e-06
2.49683e-06
2.49649e-06
2.49652e-06
2.4969e-06
3.79557e-06
3.79505e-06
3.79511e-06
3.7957e-06
5.59984e-06
5.59907e-06
5.59917e-06
5.60007e-06
8.04341e-06
8.04231e-06
8.04248e-06
8.04382e-06
1.12758e-05
1.12743e-05
1.12746e-05
1.12765e-05
1.54583e-05
1.54562e-05
1.54567e-05
1.54595e-05
2.07582e-05
2.07555e-05
2.07563e-05
2.07602e-05
2.7341e-05
2.73375e-05
2.73387e-05
2.73442e-05
3.53613e-05
3.53569e-05
3.53588e-05
3.53663e-05
4.49532e-05
4.49478e-05
4.49506e-05
4.49607e-05
5.62202e-05
5.62138e-05
5.62176e-05
5.62311e-05
6.92268e-05
6.92193e-05
6.92246e-05
6.92423e-05
8.39921e-05
8.39836e-05
8.39905e-05
8.40134e-05
0.000100486
0.000100477
0.000100485
0.000100515
0.00011863
0.000118619
0.00011863
0.000118666
0.000138297
0.000138286
0.000138298
0.000138343
0.000159323
0.000159312
0.000159326
0.00015938
0.000181511
0.000181499
0.000181515
0.000181578
0.00020464
0.000204628
0.000204645
0.000204719
0.000226363
0.000226342
0.000226341
0.000226374
0.000246879
0.000246858
0.000246855
0.000246888
0.000267814
0.000267793
0.000267788
0.000267822
0.000289142
0.000289121
0.000289115
0.00028915
0.000310794
0.000310774
0.000310767
0.000310802
0.000332702
0.000332682
0.000332674
0.00033271
0.000354796
0.000354777
0.000354767
0.000354804
0.000377011
0.000376992
0.000376981
0.000377018
0.000399282
0.000399265
0.000399252
0.000399289
0.000421552
0.000421537
0.000421523
0.000421559
0.000443772
0.000443757
0.000443742
0.000443778
0.000465901
0.000465888
0.000465872
0.000465906
0.000487917
0.000487905
0.000487888
0.000487921
0.00050982
0.000509809
0.000509791
0.000509823
0.00053164
0.000531631
0.000531612
0.000531642
0.000553446
0.000553438
0.000553418
0.000553445
0.000575345
0.000575338
0.000575318
0.00057534
0.000597488
0.000597481
0.00059746
0.000597477
0.000620063
0.000620056
0.000620034
0.000620044
0.000643269
0.000643261
0.000643237
0.000643241
0.000667063
0.000667054
0.00066703
0.000667036
0.000687601
0.000687602
0.000687601
0.000687747
0.000703465
0.000703469
0.000703466
0.000703606
0.000718789
0.000718803
0.000718796
0.000718928
0.000733653
0.000733666
0.000733658
0.000733782
0.00074812
0.000748131
0.000748122
0.000748237
0.00076226
0.000762269
0.00076226
0.000762366
0.000776141
0.000776149
0.000776139
0.000776235
0.000789826
0.000789833
0.000789824
0.000789909
0.00080337
0.000803377
0.000803368
0.000803443
0.000816817
0.000816822
0.000816815
0.000816879
0.000830197
0.000830201
0.000830196
0.000830249
0.000843533
0.00084353
0.000843532
0.000843574
0.00085683
0.00085683
0.000856831
0.000856865
0.000870097
0.000870101
0.000870097
0.000870127
0.000883336
0.00088334
0.000883337
0.000883359
0.000896549
0.000896553
0.000896549
0.000896567
0.000909746
0.000909751
0.000909746
0.00090976
0.000922947
0.000922953
0.000922946
0.000922957
0.00093619
0.000936196
0.000936186
0.000936193
0.000949532
0.000949537
0.00094952
0.000949524
0.000963059
0.000963064
0.000963033
0.000963031
0.000976898
0.000976897
0.00097684
0.000976826
0.000991215
0.000991197
0.000991103
0.000991055
0.00100637
0.00100629
0.00100616
0.00100601
0.00102289
0.00102261
0.00102249
0.00102204
0.00103978
0.00103973
0.0010395
0.00103926
0.00105557
0.00105561
0.00105545
0.00105538
0.00106979
0.00106985
0.00106978
0.00106985
0.00108232
0.00108241
0.00108237
0.00108258
0.00109315
0.0010933
0.00109326
0.00109358
0.00110235
0.00110255
0.00110251
0.00110294
0.00111001
0.00111025
0.00111021
0.00111075
0.00111622
0.0011165
0.00111645
0.0011171
0.00112107
0.0011214
0.00112134
0.00112209
0.00112467
0.00112504
0.00112497
0.00112584
0.00112711
0.00112754
0.00112745
0.00112843
0.00112853
0.00112898
0.00112893
0.00112999
0.00112902
0.00112945
0.00112955
0.00113062
0.00112875
0.00112897
0.00112947
0.00113045
0.00112788
0.00112737
0.00112882
0.00112962
0.00112637
0.00112572
0.00112748
0.00112826
0.00112446
0.00112372
0.00112568
0.00112651
0.00112226
0.00112145
0.00112356
0.00112448
0.00111971
0.00111885
0.00112106
0.00112211
0.00111671
0.00111584
0.00111808
0.00111931
0.00111395
0.00111316
0.00111535
0.00111684
0.00111307
0.00111258
0.00111458
0.00111644
)
;

boundaryField
{
    inlet
    {
        type            cyclic;
    }
    outlet
    {
        type            cyclic;
    }
    fixedWalls-bottom
    {
        type            nutkWallFunction;
        Cmu             0.09;
        kappa           0.41;
        E               9.8;
        value           uniform 0;
    }
    fixedWalls-top
    {
        type            symmetry;
    }
    frontAndBack
    {
        type            empty;
    }
}


// ************************************************************************* //
