/*--------------------------------*- C++ -*----------------------------------*\
  =========                 |
  \\      /  F ield         | OpenFOAM: The Open Source CFD Toolbox
   \\    /   O peration     | Website:  https://openfoam.org
    \\  /    A nd           | Version:  10
     \\/     M anipulation  |
\*---------------------------------------------------------------------------*/
FoamFile
{
    format      ascii;
    class       surfaceScalarField;
    location    "3680";
    object      phi;
}
// * * * * * * * * * * * * * * * * * * * * * * * * * * * * * * * * * * * * * //

dimensions      [0 3 -1 0 0 0 0];

internalField   nonuniform List<scalar> 
696
(
7.37951e-05
-7.63454e-11
7.37951e-05
3.28328e-11
7.3795e-05
7.39669e-11
-3.28246e-11
0.000224868
-2.73961e-10
0.000224868
1.35592e-10
0.000224868
2.71619e-10
-1.35565e-10
0.000381608
-5.76967e-10
0.000381607
3.13361e-10
0.000381607
5.74638e-10
-3.13316e-10
0.000544163
-9.68405e-10
0.000544163
5.71535e-10
0.000544163
9.66107e-10
-5.71471e-10
0.000712686
-1.42972e-09
0.000712686
9.16077e-10
0.000712685
1.42744e-09
-9.15996e-10
0.000887331
-1.94049e-09
0.00088733
1.35369e-09
0.00088733
1.93823e-09
-1.35359e-09
0.00106825
-2.47835e-09
0.00106825
1.89176e-09
0.00106825
2.4761e-09
-1.89165e-09
0.00125561
-3.01868e-09
0.00125561
2.53854e-09
0.00125561
3.01646e-09
-2.5384e-09
0.00144957
-3.53453e-09
0.00144957
3.30288e-09
0.00144956
3.53232e-09
-3.30273e-09
0.00165028
-3.99629e-09
0.00165028
4.19432e-09
0.00165027
3.9941e-09
-4.19415e-09
0.0018579
-4.37157e-09
0.0018579
5.2226e-09
0.0018579
4.36939e-09
-5.22241e-09
0.0020726
-4.62499e-09
0.0020726
6.39743e-09
0.0020726
4.62284e-09
-6.39722e-09
0.00229453
-4.71817e-09
0.00229453
7.72774e-09
0.00229453
4.71603e-09
-7.72751e-09
0.00252383
-4.60972e-09
0.00252383
9.22102e-09
0.00252383
4.60759e-09
-9.22078e-09
0.00276065
-4.25568e-09
0.00276065
1.08822e-08
0.00276065
4.25356e-09
-1.08819e-08
0.00300512
-3.61014e-09
0.00300512
1.27125e-08
0.00300512
3.60804e-09
-1.27122e-08
0.00325735
-2.62675e-09
0.00325735
1.47081e-08
0.00325735
2.62466e-09
-1.47079e-08
0.00351744
-1.26077e-09
0.00351744
1.6859e-08
0.00351744
1.2587e-09
-1.68587e-08
0.00378548
5.27439e-10
0.00378547
1.91474e-08
0.00378548
-5.29507e-10
-1.9147e-08
0.00406151
2.76776e-09
0.00406151
2.15474e-08
0.00406151
-2.76981e-09
-2.15471e-08
0.00434558
5.47378e-09
0.00434558
2.40251e-08
0.00434558
-5.47582e-09
-2.40247e-08
0.0046377
8.63487e-09
0.0046377
2.65394e-08
0.0046377
-8.6369e-09
-2.6539e-08
0.00493785
1.22066e-08
0.00493784
2.9044e-08
0.00493785
-1.22086e-08
-2.90436e-08
0.00524599
1.61005e-08
0.00524599
3.14908e-08
0.00524599
-1.61025e-08
-3.14903e-08
0.00556208
2.01731e-08
0.00556208
3.38328e-08
0.00556208
-2.01752e-08
-3.38323e-08
0.00588605
2.4217e-08
0.00588605
3.60293e-08
0.00588605
-2.4219e-08
-3.60288e-08
0.00621783
2.7953e-08
0.00621783
3.80491e-08
0.00621783
-2.79549e-08
-3.80486e-08
0.00655735
3.10268e-08
0.00655735
3.98756e-08
0.00655735
-3.10288e-08
-3.98751e-08
0.00690454
3.30101e-08
0.00690454
4.15144e-08
0.00690454
-3.3012e-08
-4.15139e-08
0.00725935
3.34055e-08
0.00725935
4.30082e-08
0.00725935
-3.34075e-08
-4.30077e-08
0.00762175
3.16569e-08
0.00762174
4.44543e-08
0.00762174
-3.16588e-08
-4.44537e-08
0.00799171
2.71645e-08
0.00799171
4.60252e-08
0.00799171
-2.71665e-08
-4.60247e-08
0.00836938
2.13274e-08
0.00836938
4.71957e-08
0.00836937
-2.13293e-08
-4.71951e-08
0.008755
1.59401e-08
0.008755
4.73884e-08
0.008755
-1.5942e-08
-4.73878e-08
0.00914873
1.10704e-08
0.00914873
4.67479e-08
0.00914873
-1.10723e-08
-4.67473e-08
0.00955062
6.71596e-09
0.00955062
4.54298e-08
0.00955062
-6.71787e-09
-4.54292e-08
0.00996073
2.85334e-09
0.00996074
4.35786e-08
0.00996073
-2.85524e-09
-4.3578e-08
0.0103791
-5.56446e-10
0.0103791
4.13279e-08
0.0103791
5.54554e-10
-4.13273e-08
0.0108059
-3.56213e-09
0.0108059
3.87998e-08
0.0108059
3.56024e-09
-3.87991e-08
0.0112411
-6.21832e-09
0.0112411
3.61073e-08
0.0112411
6.21644e-09
-3.61066e-08
0.0116848
-8.57982e-09
0.0116848
3.33565e-08
0.0116848
8.57795e-09
-3.33559e-08
0.0121371
-1.06976e-08
0.0121371
3.06503e-08
0.0121371
1.06957e-08
-3.06496e-08
0.0125981
-1.26118e-08
0.0125981
2.80908e-08
0.0125981
1.26099e-08
-2.80901e-08
0.0130679
-1.43451e-08
0.0130679
2.57834e-08
0.0130679
1.43433e-08
-2.57827e-08
0.0135465
-1.58916e-08
0.0135465
2.38386e-08
0.0135465
1.58897e-08
-2.38379e-08
0.0140341
-1.72027e-08
0.0140341
2.23725e-08
0.0140341
1.72009e-08
-2.23718e-08
0.0145308
-1.81681e-08
0.0145308
2.15029e-08
0.0145308
1.81663e-08
-2.15022e-08
0.0150365
-1.85914e-08
0.0150365
2.13407e-08
0.0150365
1.85896e-08
-2.134e-08
0.0155515
-1.81587e-08
0.0155515
2.19674e-08
0.0155515
1.81568e-08
-2.19667e-08
0.0160756
-1.64014e-08
0.0160756
2.33948e-08
0.0160756
1.63996e-08
-2.33941e-08
0.0166089
-1.26624e-08
0.0166089
2.54895e-08
0.0166089
1.26605e-08
-2.54887e-08
0.0171515
-6.08147e-09
0.0171515
2.79125e-08
0.0171515
6.07967e-09
-2.79117e-08
0.0177032
4.08854e-09
0.0177032
3.00464e-08
0.0177032
-4.09033e-09
-3.00457e-08
0.0182643
1.39007e-08
0.0182643
3.19155e-08
0.0182643
-1.39025e-08
-3.19147e-08
0.0188352
1.95841e-08
0.0188352
3.3617e-08
0.0188352
-1.95859e-08
-3.36162e-08
0.0194162
2.21409e-08
0.0194162
3.47907e-08
0.0194162
-2.21426e-08
-3.47899e-08
0.0200074
2.2466e-08
0.0200074
3.52785e-08
0.0200074
-2.24678e-08
-3.52777e-08
0.0206089
2.12775e-08
0.0206089
3.49102e-08
0.0206089
-2.12792e-08
-3.49094e-08
0.0212207
1.9173e-08
0.0212207
3.36588e-08
0.0212207
-1.91748e-08
-3.3658e-08
0.0218428
1.66315e-08
0.0218428
3.16001e-08
0.0218428
-1.66333e-08
-3.15992e-08
0.0224753
1.40187e-08
0.0224753
2.88734e-08
0.0224753
-1.40205e-08
-2.88726e-08
0.023118
1.15978e-08
0.023118
2.56478e-08
0.023118
-1.15995e-08
-2.5647e-08
0.023771
9.53116e-09
0.023771
2.20922e-08
0.023771
-9.53289e-09
-2.20914e-08
0.0244342
7.86994e-09
0.0244342
1.83546e-08
0.0244342
-7.87166e-09
-1.83538e-08
0.0251076
6.49634e-09
0.0251076
1.45045e-08
0.0251076
-6.49805e-09
-1.45037e-08
0.025791
5.2823e-09
0.025791
1.05786e-08
0.025791
-5.28399e-09
-1.05777e-08
0.0264843
4.21051e-09
0.0264843
6.58648e-09
0.0264843
-4.2122e-09
-6.58561e-09
0.0271874
3.16935e-09
0.0271874
2.47299e-09
0.0271874
-3.17102e-09
-2.47213e-09
0.0279002
1.85782e-09
0.0279002
-1.837e-09
0.0279002
-1.85948e-09
1.83787e-09
0.0286225
-1.64179e-10
0.0286225
-6.42066e-09
0.0286225
1.62524e-10
6.42154e-09
0.029354
-3.45844e-09
0.029354
-1.12738e-08
0.029354
3.45679e-09
1.12747e-08
0.0300946
-8.70741e-09
0.0300946
-1.62545e-08
0.0300946
8.70578e-09
1.62554e-08
0.0308441
-1.66744e-08
0.0308441
-2.09999e-08
0.0308441
1.66728e-08
2.10008e-08
0.0316021
-2.80134e-08
0.0316021
-2.48534e-08
0.031602
2.80118e-08
2.48543e-08
0.0323682
-4.28228e-08
0.0323683
-2.69499e-08
0.0323682
4.28212e-08
2.69508e-08
0.0331423
-5.98391e-08
0.0331423
-2.64704e-08
0.0331423
5.98375e-08
2.64713e-08
0.0339238
-7.49175e-08
0.0339238
-2.35224e-08
0.0339238
7.49159e-08
2.35233e-08
0.0347122
-7.81677e-08
0.0347122
-2.14829e-08
0.0347122
7.81662e-08
2.14838e-08
0.035507
-6.48741e-08
0.035507
-2.06665e-08
0.0355071
6.48726e-08
2.06674e-08
0.0363079
-4.1951e-08
0.0363079
-1.6992e-08
0.0363079
4.19495e-08
1.69929e-08
0.0371144
-1.7698e-08
0.0371144
-9.0336e-09
0.0371144
1.76965e-08
9.03452e-09
0.0379262
3.06036e-09
0.0379262
1.92408e-09
0.0379262
-3.06183e-09
-1.92315e-09
0.0387429
1.90006e-08
0.0387429
1.39865e-08
0.0387429
-1.90021e-08
-1.39855e-08
0.0395639
3.04785e-08
0.0395639
2.59139e-08
0.0395639
-3.048e-08
-2.59129e-08
0.0403888
3.83186e-08
0.0403888
3.6918e-08
0.0403888
-3.83201e-08
-3.6917e-08
0.0412169
4.35118e-08
0.0412169
4.66974e-08
0.0412169
-4.35133e-08
-4.66964e-08
0.0420476
4.71439e-08
0.0420476
5.52602e-08
0.0420476
-4.71454e-08
-5.52591e-08
0.04288
5.04261e-08
0.04288
6.27471e-08
0.04288
-5.04276e-08
-6.2746e-08
0.0437133
5.47544e-08
0.0437133
6.92819e-08
0.0437133
-5.47559e-08
-6.92807e-08
0.0445466
6.16417e-08
0.0445466
7.49381e-08
0.0445466
-6.16432e-08
-7.49368e-08
0.0453789
7.23264e-08
0.0453789
7.98805e-08
0.0453789
-7.23279e-08
-7.98792e-08
0.046209
8.63974e-08
0.046209
8.41391e-08
0.046209
-8.63989e-08
-8.41379e-08
0.0470357
9.66852e-08
0.0470357
8.68085e-08
0.0470357
-9.66866e-08
-8.68073e-08
0.0478577
9.81037e-08
0.0478577
8.64572e-08
0.0478577
-9.81051e-08
-8.6456e-08
0.0486735
9.22839e-08
0.0486735
8.21581e-08
0.0486735
-9.22852e-08
-8.21569e-08
0.0494815
8.08375e-08
0.0494815
7.34832e-08
0.0494815
-8.08386e-08
-7.34822e-08
0.0502801
6.50512e-08
0.0502802
6.03584e-08
0.0502801
-6.5052e-08
-6.03576e-08
0.0510676
4.5866e-08
0.0510676
4.30757e-08
0.0510676
-4.58666e-08
-4.30751e-08
0.0518419
2.39791e-08
0.0518419
2.2431e-08
0.0518419
-2.39794e-08
-2.24307e-08
0.052601
0.052601
0.052601
)
;

boundaryField
{
    inlet
    {
        type            cyclic;
        value           nonuniform List<scalar> 
100
(
-0.0526009
-0.0518418
-0.0510675
-0.0502801
-0.0494815
-0.0486734
-0.0478577
-0.0470357
-0.046209
-0.0453789
-0.0445466
-0.0437133
-0.04288
-0.0420476
-0.0412169
-0.0403888
-0.039564
-0.0387429
-0.0379263
-0.0371145
-0.0363079
-0.0355071
-0.0347122
-0.0339238
-0.0331423
-0.0323682
-0.031602
-0.0308441
-0.0300946
-0.029354
-0.0286225
-0.0279002
-0.0271874
-0.0264843
-0.025791
-0.0251076
-0.0244342
-0.023771
-0.023118
-0.0224752
-0.0218428
-0.0212207
-0.0206089
-0.0200074
-0.0194162
-0.0188352
-0.0182643
-0.0177032
-0.0171515
-0.0166089
-0.0160756
-0.0155515
-0.0150365
-0.0145308
-0.0140341
-0.0135465
-0.0130679
-0.0125981
-0.0121371
-0.0116848
-0.0112411
-0.0108059
-0.0103791
-0.00996073
-0.00955062
-0.00914872
-0.008755
-0.00836937
-0.00799171
-0.00762174
-0.00725935
-0.00690454
-0.00655735
-0.00621783
-0.00588605
-0.00556208
-0.00524599
-0.00493785
-0.0046377
-0.00434559
-0.00406152
-0.00378548
-0.00351744
-0.00325735
-0.00300512
-0.00276065
-0.00252383
-0.00229453
-0.0020726
-0.0018579
-0.00165028
-0.00144957
-0.00125561
-0.00106825
-0.00088733
-0.000712686
-0.000544163
-0.000381607
-0.000224868
-7.3795e-05
)
;
    }
    outlet
    {
        type            cyclic;
        value           nonuniform List<scalar> 
100
(
0.0526009
0.0518418
0.0510675
0.0502801
0.0494815
0.0486734
0.0478577
0.0470357
0.046209
0.0453789
0.0445466
0.0437133
0.04288
0.0420476
0.0412169
0.0403888
0.039564
0.0387429
0.0379263
0.0371145
0.0363079
0.0355071
0.0347122
0.0339238
0.0331423
0.0323682
0.031602
0.0308441
0.0300946
0.029354
0.0286225
0.0279002
0.0271874
0.0264843
0.025791
0.0251076
0.0244342
0.023771
0.023118
0.0224752
0.0218428
0.0212207
0.0206089
0.0200074
0.0194162
0.0188352
0.0182643
0.0177032
0.0171515
0.0166089
0.0160756
0.0155515
0.0150365
0.0145308
0.0140341
0.0135465
0.0130679
0.0125981
0.0121371
0.0116848
0.0112411
0.0108059
0.0103791
0.00996073
0.00955062
0.00914872
0.008755
0.00836937
0.00799171
0.00762174
0.00725935
0.00690454
0.00655735
0.00621783
0.00588605
0.00556208
0.00524599
0.00493785
0.0046377
0.00434559
0.00406152
0.00378548
0.00351744
0.00325735
0.00300512
0.00276065
0.00252383
0.00229453
0.0020726
0.0018579
0.00165028
0.00144957
0.00125561
0.00106825
0.00088733
0.000712686
0.000544163
0.000381607
0.000224868
7.3795e-05
)
;
    }
    fixedWalls-bottom
    {
        type            calculated;
        value           uniform 0;
    }
    fixedWalls-top
    {
        type            symmetry;
        value           uniform 0;
    }
    frontAndBack
    {
        type            empty;
        value           nonuniform List<scalar> 0();
    }
}


// ************************************************************************* //
