/*--------------------------------*- C++ -*----------------------------------*\
  =========                 |
  \\      /  F ield         | OpenFOAM: The Open Source CFD Toolbox
   \\    /   O peration     | Website:  https://openfoam.org
    \\  /    A nd           | Version:  10
     \\/     M anipulation  |
\*---------------------------------------------------------------------------*/
FoamFile
{
    format      ascii;
    class       volVectorField;
    location    "3680";
    object      U;
}
// * * * * * * * * * * * * * * * * * * * * * * * * * * * * * * * * * * * * * //

dimensions      [0 1 -1 0 0 0 0];

internalField   nonuniform List<vector> 
400
(
(0.00799731 -1.65382e-11 0)
(0.00799732 4.15152e-12 0)
(0.0079973 1.46904e-11 0)
(0.0079973 -4.14695e-12 0)
(0.0240305 -1.52691e-10 0)
(0.0240305 6.89546e-11 0)
(0.0240305 1.50612e-10 0)
(0.0240305 -6.89382e-11 0)
(0.0402134 -4.02594e-10 0)
(0.0402134 2.05816e-10 0)
(0.0402133 3.99972e-10 0)
(0.0402133 -2.0578e-10 0)
(0.0565459 -7.53665e-10 0)
(0.056546 4.22353e-10 0)
(0.0565459 7.51372e-10 0)
(0.0565459 -4.22298e-10 0)
(0.0730279 -1.1855e-09 0)
(0.073028 7.22616e-10 0)
(0.0730279 1.18327e-09 0)
(0.0730279 -7.22543e-10 0)
(0.0896592 -1.67724e-09 0)
(0.0896592 1.11235e-09 0)
(0.0896591 1.67498e-09 0)
(0.0896591 -1.11226e-09 0)
(0.106439 -2.2075e-09 0)
(0.106439 1.59861e-09 0)
(0.106439 2.20524e-09 0)
(0.106439 -1.5985e-09 0)
(0.123368 -2.75298e-09 0)
(0.123368 2.18929e-09 0)
(0.123368 2.75074e-09 0)
(0.123368 -2.18916e-09 0)
(0.140444 -3.28798e-09 0)
(0.140444 2.89298e-09 0)
(0.140444 3.28577e-09 0)
(0.140444 -2.89284e-09 0)
(0.157667 -3.78426e-09 0)
(0.157667 3.71894e-09 0)
(0.157667 3.78206e-09 0)
(0.157667 -3.71877e-09 0)
(0.175035 -4.21084e-09 0)
(0.175035 4.67686e-09 0)
(0.175035 4.20866e-09 0)
(0.175035 -4.67668e-09 0)
(0.192547 -4.53384e-09 0)
(0.192547 5.77663e-09 0)
(0.192547 4.53167e-09 0)
(0.192547 -5.77643e-09 0)
(0.2102 -4.71635e-09 0)
(0.2102 7.0277e-09 0)
(0.2102 4.7142e-09 0)
(0.2102 -7.02749e-09 0)
(0.227991 -4.71842e-09 0)
(0.227991 8.43852e-09 0)
(0.227991 4.71628e-09 0)
(0.227991 -8.43828e-09 0)
(0.245917 -4.49721e-09 0)
(0.245917 1.00155e-08 0)
(0.245917 4.49508e-09 0)
(0.245917 -1.00153e-08 0)
(0.263971 -4.00748e-09 0)
(0.263971 1.17621e-08 0)
(0.263971 4.00537e-09 0)
(0.263971 -1.17618e-08 0)
(0.282149 -3.20265e-09 0)
(0.282149 1.36773e-08 0)
(0.282148 3.20056e-09 0)
(0.282149 -1.3677e-08 0)
(0.300441 -2.03644e-09 0)
(0.300441 1.57543e-08 0)
(0.300441 2.03435e-09 0)
(0.300441 -1.5754e-08 0)
(0.318839 -4.65629e-10 0)
(0.318839 1.79794e-08 0)
(0.318839 4.63558e-10 0)
(0.318839 -1.79791e-08 0)
(0.337332 1.54587e-09 0)
(0.337332 2.0331e-08 0)
(0.337332 -1.54793e-09 0)
(0.337332 -2.03306e-08 0)
(0.355907 4.02152e-09 0)
(0.355907 2.27789e-08 0)
(0.355907 -4.02357e-09 0)
(0.355907 -2.27785e-08 0)
(0.37455 6.96482e-09 0)
(0.37455 2.52852e-08 0)
(0.374549 -6.96686e-09 0)
(0.37455 -2.52848e-08 0)
(0.393245 1.03505e-08 0)
(0.393245 2.78058e-08 0)
(0.393245 -1.03526e-08 0)
(0.393245 -2.78054e-08 0)
(0.411976 1.41145e-08 0)
(0.411975 3.02928e-08 0)
(0.411975 -1.41165e-08 0)
(0.411976 -3.02923e-08 0)
(0.430725 1.81426e-08 0)
(0.430725 3.26979e-08 0)
(0.430725 -1.81446e-08 0)
(0.430725 -3.26974e-08 0)
(0.449475 2.22608e-08 0)
(0.449474 3.49767e-08 0)
(0.449474 -2.22627e-08 0)
(0.449475 -3.49763e-08 0)
(0.468208 2.62268e-08 0)
(0.468208 3.70919e-08 0)
(0.468208 -2.62288e-08 0)
(0.468208 -3.70914e-08 0)
(0.486908 2.97294e-08 0)
(0.486908 3.90152e-08 0)
(0.486907 -2.97314e-08 0)
(0.486908 -3.90147e-08 0)
(0.505559 3.23859e-08 0)
(0.505559 4.07356e-08 0)
(0.505558 -3.23878e-08 0)
(0.505559 -4.07351e-08 0)
(0.524147 3.37003e-08 0)
(0.524147 4.2287e-08 0)
(0.524147 -3.37022e-08 0)
(0.524147 -4.22865e-08 0)
(0.542661 3.29726e-08 0)
(0.542661 4.37984e-08 0)
(0.542661 -3.29745e-08 0)
(0.542661 -4.37978e-08 0)
(0.56109 2.94628e-08 0)
(0.56109 4.54523e-08 0)
(0.56109 -2.94647e-08 0)
(0.561089 -4.54518e-08 0)
(0.579435 2.46714e-08 0)
(0.579435 4.66419e-08 0)
(0.579434 -2.46734e-08 0)
(0.579434 -4.66413e-08 0)
(0.597704 1.86482e-08 0)
(0.597704 4.74505e-08 0)
(0.597704 -1.86502e-08 0)
(0.597703 -4.74499e-08 0)
(0.615898 1.33437e-08 0)
(0.615899 4.72567e-08 0)
(0.615899 -1.33456e-08 0)
(0.615898 -4.72561e-08 0)
(0.634014 8.72928e-09 0)
(0.634014 4.62409e-08 0)
(0.634014 -8.73119e-09 0)
(0.634013 -4.62403e-08 0)
(0.652044 4.64663e-09 0)
(0.652044 4.46131e-08 0)
(0.652044 -4.64853e-09 0)
(0.652044 -4.46125e-08 0)
(0.669985 1.0278e-09 0)
(0.669986 4.2527e-08 0)
(0.669986 -1.0297e-09 0)
(0.669985 -4.25264e-08 0)
(0.687834 -2.1659e-09 0)
(0.687834 4.01076e-08 0)
(0.687834 2.16401e-09 0)
(0.687834 -4.01069e-08 0)
(0.705586 -4.98227e-09 0)
(0.705586 3.74697e-08 0)
(0.705586 4.98038e-09 0)
(0.705586 -3.7469e-08 0)
(0.723238 -7.47666e-09 0)
(0.723238 3.47221e-08 0)
(0.723238 7.47478e-09 0)
(0.723238 -3.47214e-08 0)
(0.740788 -9.70372e-09 0)
(0.740788 3.19684e-08 0)
(0.740788 9.70185e-09 0)
(0.740788 -3.19677e-08 0)
(0.758233 -1.17109e-08 0)
(0.758233 2.93104e-08 0)
(0.758233 1.1709e-08 0)
(0.758233 -2.93097e-08 0)
(0.77557 -1.35319e-08 0)
(0.775571 2.68513e-08 0)
(0.775571 1.35301e-08 0)
(0.77557 -2.68506e-08 0)
(0.792798 -1.51781e-08 0)
(0.792798 2.46985e-08 0)
(0.792798 1.51762e-08 0)
(0.792798 -2.46978e-08 0)
(0.809914 -1.66257e-08 0)
(0.809914 2.29656e-08 0)
(0.809914 1.66239e-08 0)
(0.809914 -2.29649e-08 0)
(0.826915 -1.77998e-08 0)
(0.826915 2.17712e-08 0)
(0.826915 1.7798e-08 0)
(0.826915 -2.17704e-08 0)
(0.843797 -1.85557e-08 0)
(0.843797 2.12345e-08 0)
(0.843797 1.85539e-08 0)
(0.843797 -2.12337e-08 0)
(0.860558 -1.86594e-08 0)
(0.860558 2.14625e-08 0)
(0.860558 1.86576e-08 0)
(0.860558 -2.14618e-08 0)
(0.877191 -1.77424e-08 0)
(0.877191 2.25145e-08 0)
(0.877191 1.77406e-08 0)
(0.877192 -2.25138e-08 0)
(0.893692 -1.51458e-08 0)
(0.893692 2.43217e-08 0)
(0.893692 1.5144e-08 0)
(0.893692 -2.43209e-08 0)
(0.910052 -9.70201e-09 0)
(0.910052 2.66095e-08 0)
(0.910052 9.70023e-09 0)
(0.910053 -2.66087e-08 0)
(0.926265 -4.54534e-10 0)
(0.926264 2.88515e-08 0)
(0.926264 4.52722e-10 0)
(0.926266 -2.88508e-08 0)
(0.942332 8.53153e-09 0)
(0.942332 3.12155e-08 0)
(0.942332 -8.53333e-09 0)
(0.942333 -3.12147e-08 0)
(0.958274 1.72645e-08 0)
(0.958274 3.29334e-08 0)
(0.958274 -1.72662e-08 0)
(0.958274 -3.29326e-08 0)
(0.974098 2.16068e-08 0)
(0.974098 3.44198e-08 0)
(0.974098 -2.16086e-08 0)
(0.974098 -3.4419e-08 0)
(0.989802 2.28235e-08 0)
(0.989802 3.52452e-08 0)
(0.989802 -2.28253e-08 0)
(0.989802 -3.52444e-08 0)
(1.00538 2.21691e-08 0)
(1.00538 3.53078e-08 0)
(1.00538 -2.21709e-08 0)
(1.00538 -3.53069e-08 0)
(1.02083 2.03757e-08 0)
(1.02083 3.4487e-08 0)
(1.02083 -2.03774e-08 0)
(1.02083 -3.44861e-08 0)
(1.03615 1.79505e-08 0)
(1.03615 3.28009e-08 0)
(1.03615 -1.79523e-08 0)
(1.03615 -3.28001e-08 0)
(1.05132 1.53002e-08 0)
(1.05132 3.03655e-08 0)
(1.05132 -1.53019e-08 0)
(1.05132 -3.03646e-08 0)
(1.06635 1.27385e-08 0)
(1.06635 2.73445e-08 0)
(1.06635 -1.27402e-08 0)
(1.06635 -2.73437e-08 0)
(1.08123 1.04826e-08 0)
(1.08123 2.39174e-08 0)
(1.08123 -1.04843e-08 0)
(1.08123 -2.39165e-08 0)
(1.09594 8.62691e-09 0)
(1.09594 2.02508e-08 0)
(1.09594 -8.62863e-09 0)
(1.09594 -2.025e-08 0)
(1.11048 7.09256e-09 0)
(1.11048 1.64295e-08 0)
(1.11048 -7.09427e-09 0)
(1.11048 -1.64286e-08 0)
(1.12484 5.83534e-09 0)
(1.12484 1.25521e-08 0)
(1.12484 -5.83704e-09 0)
(1.12484 -1.25513e-08 0)
(1.13902 4.74695e-09 0)
(1.13902 8.59034e-09 0)
(1.13902 -4.74864e-09 0)
(1.13902 -8.58948e-09 0)
(1.153 3.73379e-09 0)
(1.153 4.55826e-09 0)
(1.153 -3.73547e-09 0)
(1.153 -4.55739e-09 0)
(1.16678 2.62952e-09 0)
(1.16678 3.65998e-10 0)
(1.16678 -2.63119e-09 0)
(1.16678 -3.65126e-10 0)
(1.18034 1.07434e-09 0)
(1.18034 -4.06392e-09 0)
(1.18034 -1.076e-09 0)
(1.18034 4.0648e-09 0)
(1.19367 -1.43959e-09 0)
(1.19367 -8.7826e-09 0)
(1.19367 1.43794e-09 0)
(1.19367 8.78348e-09 0)
(1.20677 -5.54721e-09 0)
(1.20677 -1.37441e-08 0)
(1.20677 5.54557e-09 0)
(1.20677 1.3745e-08 0)
(1.21963 -1.20053e-08 0)
(1.21963 -1.86975e-08 0)
(1.21963 1.20037e-08 0)
(1.21963 1.86984e-08 0)
(1.23222 -2.16234e-08 0)
(1.23222 -2.31115e-08 0)
(1.23222 2.16218e-08 0)
(1.23222 2.31124e-08 0)
(1.24455 -3.50783e-08 0)
(1.24455 -2.61333e-08 0)
(1.24455 3.50767e-08 0)
(1.24455 2.61341e-08 0)
(1.25659 -5.21649e-08 0)
(1.25659 -2.67854e-08 0)
(1.25659 5.21633e-08 0)
(1.25659 2.67862e-08 0)
(1.26833 -6.95358e-08 0)
(1.26833 -2.52125e-08 0)
(1.26833 6.95342e-08 0)
(1.26833 2.52134e-08 0)
(1.27976 -7.75299e-08 0)
(1.27976 -2.43143e-08 0)
(1.27976 7.75285e-08 0)
(1.27976 2.43154e-08 0)
(1.29086 -7.32712e-08 0)
(1.29086 -2.20046e-08 0)
(1.29086 7.32697e-08 0)
(1.29087 2.20056e-08 0)
(1.30163 -5.49122e-08 0)
(1.30163 -1.9318e-08 0)
(1.30163 5.49105e-08 0)
(1.30163 1.93188e-08 0)
(1.31204 -3.01523e-08 0)
(1.31204 -1.33644e-08 0)
(1.31204 3.01507e-08 0)
(1.31204 1.33652e-08 0)
(1.32209 -6.64179e-09 0)
(1.32209 -3.84534e-09 0)
(1.32209 6.64037e-09 0)
(1.32209 3.84618e-09 0)
(1.33178 1.20972e-08 0)
(1.33178 8.03339e-09 0)
(1.33178 -1.20987e-08 0)
(1.33178 -8.03246e-09 0)
(1.34109 2.56982e-08 0)
(1.34109 2.02507e-08 0)
(1.34109 -2.56997e-08 0)
(1.34109 -2.02497e-08 0)
(1.35002 3.50986e-08 0)
(1.35002 3.18196e-08 0)
(1.35002 -3.51e-08 0)
(1.35002 -3.18186e-08 0)
(1.35854 4.13448e-08 0)
(1.35854 4.22205e-08 0)
(1.35854 -4.13463e-08 0)
(1.35854 -4.22194e-08 0)
(1.36665 4.54746e-08 0)
(1.36665 5.13393e-08 0)
(1.36664 -4.54761e-08 0)
(1.36665 -5.13382e-08 0)
(1.37432 4.86128e-08 0)
(1.37432 5.92616e-08 0)
(1.37432 -4.86142e-08 0)
(1.37432 -5.92604e-08 0)
(1.38155 5.20907e-08 0)
(1.38155 6.61041e-08 0)
(1.38155 -5.20921e-08 0)
(1.38155 -6.61029e-08 0)
(1.38831 5.7587e-08 0)
(1.38831 7.20077e-08 0)
(1.38831 -5.75885e-08 0)
(1.38831 -7.20066e-08 0)
(1.39458 6.69507e-08 0)
(1.39458 7.7354e-08 0)
(1.39458 -6.69522e-08 0)
(1.39458 -7.73529e-08 0)
(1.40034 8.03367e-08 0)
(1.40034 8.24459e-08 0)
(1.40034 -8.03382e-08 0)
(1.40034 -8.24449e-08 0)
(1.40558 9.12534e-08 0)
(1.40557 8.64715e-08 0)
(1.40558 -9.12552e-08 0)
(1.40557 -8.64702e-08 0)
(1.41025 9.84303e-08 0)
(1.41025 8.79918e-08 0)
(1.41025 -9.84317e-08 0)
(1.41025 -8.79901e-08 0)
(1.41435 9.63954e-08 0)
(1.41435 8.57165e-08 0)
(1.41435 -9.63968e-08 0)
(1.41435 -8.57149e-08 0)
(1.41783 8.73675e-08 0)
(1.41783 7.91442e-08 0)
(1.41783 -8.73688e-08 0)
(1.41783 -7.91428e-08 0)
(1.42068 7.33625e-08 0)
(1.42068 6.81059e-08 0)
(1.42068 -7.33637e-08 0)
(1.42068 -6.81047e-08 0)
(1.42287 5.57865e-08 0)
(1.42287 5.2632e-08 0)
(1.42287 -5.57874e-08 0)
(1.42287 -5.26311e-08 0)
(1.42436 3.58086e-08 0)
(1.42436 3.31726e-08 0)
(1.42436 -3.58089e-08 0)
(1.42436 -3.31722e-08 0)
(1.42512 1.26029e-08 0)
(1.42512 1.12784e-08 0)
(1.42512 -1.26028e-08 0)
(1.42511 -1.12783e-08 0)
)
;

boundaryField
{
    inlet
    {
        type            cyclic;
    }
    outlet
    {
        type            cyclic;
    }
    fixedWalls-bottom
    {
        type            noSlip;
    }
    fixedWalls-top
    {
        type            symmetry;
    }
    frontAndBack
    {
        type            empty;
    }
}


// ************************************************************************* //
