/*--------------------------------*- C++ -*----------------------------------*\
  =========                 |
  \\      /  F ield         | OpenFOAM: The Open Source CFD Toolbox
   \\    /   O peration     | Website:  https://openfoam.org
    \\  /    A nd           | Version:  10
     \\/     M anipulation  |
\*---------------------------------------------------------------------------*/
FoamFile
{
    format      ascii;
    class       volScalarField;
    location    "10000";
    object      omega;
}
// * * * * * * * * * * * * * * * * * * * * * * * * * * * * * * * * * * * * * //

dimensions      [0 0 -1 0 0 0 0];

internalField   nonuniform List<scalar> 
400
(
239775
239775
239775
239775
41017.6
41017.5
41017.5
41017.5
13797.8
13797.8
13797.8
13797.8
6480.97
6480.96
6480.96
6480.95
3665.35
3665.34
3665.34
3665.33
2324.96
2324.96
2324.96
2324.95
1592.48
1592.49
1592.49
1592.47
1151.94
1151.95
1151.95
1151.93
867.612
867.623
867.62
867.599
673.742
673.755
673.752
673.728
535.447
535.463
535.459
535.433
432.867
432.887
432.883
432.854
354.085
354.111
354.107
354.077
291.681
291.715
291.712
291.68
240.929
240.974
240.97
240.939
198.788
198.843
198.84
198.81
163.292
163.359
163.356
163.328
133.167
133.244
133.242
133.216
107.57
107.656
107.654
107.629
85.9147
86.0064
86.0051
85.9819
67.7559
67.8498
67.8493
67.8274
52.7142
52.807
52.8072
52.7866
40.4364
40.525
40.5262
40.5064
30.5776
30.6594
30.6603
30.6426
22.7987
22.8712
22.8722
22.8567
16.7724
16.8338
16.8354
16.822
12.1912
12.2408
12.2435
12.2319
8.77597
8.81404
8.81798
8.80774
6.26778
6.29599
6.30095
6.29147
4.44319
4.46359
4.46907
4.46037
3.13006
3.14467
3.15
3.14237
2.19675
2.20717
2.21191
2.2055
1.54101
1.5485
1.5524
1.54724
1.08483
1.0903
1.09328
1.08934
0.769827
0.773955
0.776028
0.773213
0.554565
0.557847
0.559021
0.557215
0.409301
0.412113
0.412421
0.411488
0.312579
0.314851
0.314701
0.31435
0.249057
0.250871
0.250556
0.250436
0.20798
0.209426
0.209053
0.20903
0.18192
0.183084
0.182705
0.182716
0.165815
0.166773
0.166414
0.166428
0.156259
0.157076
0.156742
0.156749
0.150989
0.151716
0.151418
0.151403
0.148517
0.14919
0.148912
0.1489
0.147874
0.148521
0.148265
0.148257
0.148438
0.149078
0.148848
0.148846
0.149814
0.150456
0.150255
0.150269
0.151754
0.152401
0.152262
0.152266
0.154106
0.154751
0.15467
0.154701
0.15678
0.157404
0.157397
0.157476
0.159724
0.160293
0.160385
0.160542
0.162911
0.163426
0.16358
0.163876
0.166328
0.166782
0.167015
0.167453
0.169975
0.17036
0.170677
0.171276
0.173855
0.17417
0.174569
0.175349
0.177975
0.178225
0.1787
0.179678
0.182344
0.182544
0.183078
0.184272
0.186971
0.187139
0.187714
0.189138
0.191862
0.192006
0.192615
0.194285
0.197021
0.197145
0.197783
0.199716
0.202447
0.202554
0.203217
0.205432
0.208132
0.208224
0.208906
0.211422
0.214055
0.214135
0.214831
0.217667
0.220182
0.220257
0.22096
0.224134
0.226461
0.226543
0.227245
0.230774
0.232814
0.232928
0.233623
0.23752
0.239127
0.239332
0.240013
0.244291
0.245244
0.245666
0.246328
0.250991
0.251324
0.251772
0.252483
0.257532
0.257179
0.257647
0.258429
0.263862
0.262845
0.263355
0.264216
0.27002
0.268573
0.269157
0.270097
0.276251
0.27496
0.275656
0.276703
0.283171
0.283259
0.284117
0.28535
0.292046
0.295836
0.296889
0.298473
0.305192
0.316771
0.317916
0.320429
0.326501
0.352685
0.353414
0.357926
0.362056
0.410819
0.412128
0.419566
0.419859
0.5
0.502152
0.514165
0.507753
0.611783
0.614149
0.629181
0.618523
0.76904
0.772564
0.791723
0.77563
1.08924
1.09758
1.12436
1.09667
1.69308
1.70896
1.74275
1.70306
2.47927
2.49039
2.53458
2.48421
3.43687
3.46324
3.51281
3.45396
4.60743
4.63515
4.69396
4.62964
5.98818
6.01018
6.07931
6.01332
7.56112
7.56496
7.64594
7.58284
9.2499
9.25055
9.3395
9.28211
10.9726
10.9705
11.0656
11.0156
12.6034
12.5989
12.6967
12.6539
14.0291
14.0131
14.1144
14.0748
15.1806
15.156
15.2638
15.2195
16.0898
16.0613
16.179
16.1231
16.7775
16.7482
16.8756
16.8051
17.225
17.1974
17.3315
17.2456
17.4176
17.3933
17.5306
17.4312
17.3771
17.3568
17.4939
17.3856
17.1501
17.1331
17.268
17.1561
)
;

boundaryField
{
    inlet
    {
        type            cyclic;
    }
    outlet
    {
        type            cyclic;
    }
    fixedWalls-bottom
    {
        beta1           0.075;
        blended         0;
        type            omegaWallFunction;
        value           uniform 239775;
    }
    fixedWalls-top
    {
        type            symmetry;
    }
    frontAndBack
    {
        type            empty;
    }
}


// ************************************************************************* //
