/*--------------------------------*- C++ -*----------------------------------*\
  =========                 |
  \\      /  F ield         | OpenFOAM: The Open Source CFD Toolbox
   \\    /   O peration     | Website:  https://openfoam.org
    \\  /    A nd           | Version:  10
     \\/     M anipulation  |
\*---------------------------------------------------------------------------*/
FoamFile
{
    format      ascii;
    class       volSymmTensorField;
    location    "10000";
    object      R;
}
// * * * * * * * * * * * * * * * * * * * * * * * * * * * * * * * * * * * * * //

dimensions      [0 2 -2 0 0 0 0];

internalField   nonuniform List<symmTensor> 
400
(
(1.45556e-15 -2.72526e-20 -0 1.45556e-15 -0 1.45556e-15)
(1.45424e-15 -2.72278e-20 -0 1.45424e-15 -0 1.45424e-15)
(1.45356e-15 -2.72151e-20 -0 1.45356e-15 -0 1.45356e-15)
(1.45441e-15 -2.7231e-20 -0 1.45441e-15 -0 1.45441e-15)
(4.36642e-14 -4.75672e-18 -0 4.36642e-14 -0 4.36642e-14)
(4.36245e-14 -4.75241e-18 -0 4.36245e-14 -0 4.36245e-14)
(4.36041e-14 -4.75019e-18 -0 4.36041e-14 -0 4.36041e-14)
(4.36296e-14 -4.75297e-18 -0 4.36296e-14 -0 4.36296e-14)
(3.09208e-13 -9.96616e-17 -0 3.09208e-13 -0 3.09208e-13)
(3.08927e-13 -9.9571e-17 -0 3.08927e-13 -0 3.08927e-13)
(3.08783e-13 -9.95246e-17 -0 3.08783e-13 -0 3.08783e-13)
(3.08963e-13 -9.95828e-17 -0 3.08963e-13 -0 3.08963e-13)
(1.1241e-12 -7.6762e-16 -0 1.1241e-12 -0 1.1241e-12)
(1.12307e-12 -7.66921e-16 -0 1.12307e-12 -0 1.12307e-12)
(1.12255e-12 -7.66564e-16 -0 1.12255e-12 -0 1.12255e-12)
(1.1232e-12 -7.67012e-16 -0 1.1232e-12 -0 1.1232e-12)
(2.90838e-12 -3.49442e-15 -0 2.90838e-12 -0 2.90838e-12)
(2.90573e-12 -3.49123e-15 -0 2.90573e-12 -0 2.90573e-12)
(2.90437e-12 -3.4896e-15 -0 2.90437e-12 -0 2.90437e-12)
(2.90607e-12 -3.49165e-15 -0 2.90607e-12 -0 2.90607e-12)
(6.15888e-12 -1.16075e-14 -0 6.15888e-12 -0 6.15888e-12)
(6.15325e-12 -1.15969e-14 -0 6.15325e-12 -0 6.15325e-12)
(6.15039e-12 -1.15915e-14 -0 6.15039e-12 -0 6.15039e-12)
(6.15397e-12 -1.15983e-14 -0 6.15397e-12 -0 6.15397e-12)
(1.14451e-11 -3.13305e-14 -0 1.14451e-11 -0 1.14451e-11)
(1.14346e-11 -3.13017e-14 -0 1.14346e-11 -0 1.14346e-11)
(1.14293e-11 -3.12872e-14 -0 1.14293e-11 -0 1.14293e-11)
(1.14359e-11 -3.13057e-14 -0 1.14359e-11 -0 1.14359e-11)
(1.94092e-11 -7.30684e-14 -0 1.94092e-11 -0 1.94092e-11)
(1.93915e-11 -7.30011e-14 -0 1.93915e-11 -0 1.93915e-11)
(1.93825e-11 -7.29672e-14 -0 1.93825e-11 -0 1.93825e-11)
(1.93937e-11 -7.30107e-14 -0 1.93937e-11 -0 1.93937e-11)
(3.07682e-11 -1.52973e-13 -0 3.07682e-11 -0 3.07682e-11)
(3.07401e-11 -1.52831e-13 -0 3.07401e-11 -0 3.07401e-11)
(3.07258e-11 -1.5276e-13 -0 3.07258e-11 -0 3.07258e-11)
(3.07435e-11 -1.52852e-13 -0 3.07435e-11 -0 3.07435e-11)
(4.63151e-11 -2.9492e-13 -0 4.63151e-11 -0 4.63151e-11)
(4.62728e-11 -2.94645e-13 -0 4.62728e-11 -0 4.62728e-11)
(4.62512e-11 -2.94509e-13 -0 4.62512e-11 -0 4.62512e-11)
(4.62779e-11 -2.94689e-13 -0 4.62779e-11 -0 4.62779e-11)
(6.69193e-11 -5.33216e-13 -0 6.69193e-11 -0 6.69193e-11)
(6.68583e-11 -5.32715e-13 -0 6.68583e-11 -0 6.68583e-11)
(6.68271e-11 -5.3247e-13 -0 6.68271e-11 -0 6.68271e-11)
(6.68654e-11 -5.32801e-13 -0 6.68654e-11 -0 6.68654e-11)
(9.35223e-11 -9.16588e-13 -0 9.35223e-11 -0 9.35223e-11)
(9.34372e-11 -9.15712e-13 -0 9.34372e-11 -0 9.34372e-11)
(9.33936e-11 -9.15293e-13 -0 9.33936e-11 -0 9.33936e-11)
(9.34467e-11 -9.15874e-13 -0 9.34467e-11 -0 9.34467e-11)
(1.27126e-10 -1.51439e-12 -0 1.27126e-10 -0 1.27126e-10)
(1.27011e-10 -1.5129e-12 -0 1.27011e-10 -0 1.27011e-10)
(1.26951e-10 -1.51221e-12 -0 1.26951e-10 -0 1.26951e-10)
(1.27023e-10 -1.51319e-12 -0 1.27023e-10 -0 1.27023e-10)
(1.68771e-10 -2.4263e-12 -0 1.68771e-10 -0 1.68771e-10)
(1.68618e-10 -2.42382e-12 -0 1.68618e-10 -0 1.68618e-10)
(1.6854e-10 -2.42272e-12 -0 1.6854e-10 -0 1.6854e-10)
(1.68634e-10 -2.42433e-12 -0 1.68634e-10 -0 1.68634e-10)
(2.19501e-10 -3.79751e-12 -0 2.19501e-10 -0 2.19501e-10)
(2.19304e-10 -3.79339e-12 -0 2.19304e-10 -0 2.19304e-10)
(2.19202e-10 -3.79168e-12 -0 2.19202e-10 -0 2.19202e-10)
(2.19323e-10 -3.79425e-12 -0 2.19323e-10 -0 2.19323e-10)
(2.8032e-10 -5.84194e-12 -0 2.8032e-10 -0 2.8032e-10)
(2.80071e-10 -5.8351e-12 -0 2.80071e-10 -0 2.80071e-10)
(2.7994e-10 -5.83249e-12 -0 2.7994e-10 -0 2.7994e-10)
(2.80092e-10 -5.83652e-12 -0 2.80092e-10 -0 2.80092e-10)
(3.52131e-10 -8.87809e-12 -0 3.52131e-10 -0 3.52131e-10)
(3.51822e-10 -8.86666e-12 -0 3.51822e-10 -0 3.51822e-10)
(3.51658e-10 -8.86269e-12 -0 3.51658e-10 -0 3.51658e-10)
(3.51846e-10 -8.86894e-12 -0 3.51846e-10 -0 3.51846e-10)
(4.35679e-10 -1.33839e-11 -0 4.35679e-10 -0 4.35679e-10)
(4.35303e-10 -1.33646e-11 -0 4.35303e-10 -0 4.35303e-10)
(4.35101e-10 -1.33586e-11 -0 4.35101e-10 -0 4.35101e-10)
(4.35329e-10 -1.33682e-11 -0 4.35329e-10 -0 4.35329e-10)
(5.31489e-10 -2.00812e-11 -0 5.31489e-10 -0 5.31489e-10)
(5.31043e-10 -2.00484e-11 -0 5.31043e-10 -0 5.31043e-10)
(5.30796e-10 -2.00394e-11 -0 5.30796e-10 -0 5.30796e-10)
(5.3107e-10 -2.00543e-11 -0 5.3107e-10 -0 5.3107e-10)
(6.39824e-10 -3.00673e-11 -0 6.39824e-10 -0 6.39824e-10)
(6.39305e-10 -3.00109e-11 -0 6.39305e-10 -0 6.39305e-10)
(6.39008e-10 -2.99974e-11 -0 6.39008e-10 -0 6.39008e-10)
(6.39333e-10 -3.00208e-11 -0 6.39333e-10 -0 6.39333e-10)
(7.60649e-10 -4.50189e-11 -0 7.60649e-10 -0 7.60649e-10)
(7.60058e-10 -4.49216e-11 -0 7.60058e-10 -0 7.60058e-10)
(7.59706e-10 -4.49012e-11 -0 7.59706e-10 -0 7.59706e-10)
(7.60086e-10 -4.49381e-11 -0 7.60086e-10 -0 7.60086e-10)
(8.93627e-10 -6.75118e-11 -0 8.93627e-10 -0 8.93627e-10)
(8.92969e-10 -6.73435e-11 -0 8.92969e-10 -0 8.92969e-10)
(8.92557e-10 -6.73121e-11 -0 8.92557e-10 -0 8.92557e-10)
(8.92994e-10 -6.73715e-11 -0 8.92994e-10 -0 8.92994e-10)
(1.03813e-09 -1.01521e-10 -0 1.03813e-09 -0 1.03813e-09)
(1.03741e-09 -1.0123e-10 -0 1.03741e-09 -0 1.03741e-09)
(1.03693e-09 -1.0118e-10 -0 1.03693e-09 -0 1.03693e-09)
(1.03743e-09 -1.01278e-10 -0 1.03743e-09 -0 1.03743e-09)
(1.19324e-09 -1.53204e-10 -0 1.19324e-09 -0 1.19324e-09)
(1.19248e-09 -1.52697e-10 -0 1.19248e-09 -0 1.19248e-09)
(1.19193e-09 -1.52623e-10 -0 1.19193e-09 -0 1.19193e-09)
(1.19249e-09 -1.52783e-10 -0 1.19249e-09 -0 1.19249e-09)
(1.35783e-09 -2.321e-10 -0 1.35783e-09 -0 1.35783e-09)
(1.35703e-09 -2.3123e-10 -0 1.35703e-09 -0 1.35703e-09)
(1.35642e-09 -2.31114e-10 -0 1.35642e-09 -0 1.35642e-09)
(1.35705e-09 -2.31378e-10 -0 1.35705e-09 -0 1.35705e-09)
(1.53052e-09 -3.52948e-10 -0 1.53052e-09 -0 1.53052e-09)
(1.52971e-09 -3.51476e-10 -0 1.52971e-09 -0 1.52971e-09)
(1.52902e-09 -3.51284e-10 -0 1.52902e-09 -0 1.52902e-09)
(1.52972e-09 -3.51724e-10 -0 1.52972e-09 -0 1.52972e-09)
(1.70969e-09 -5.38264e-10 -0 1.70969e-09 -0 1.70969e-09)
(1.7089e-09 -5.35834e-10 -0 1.7089e-09 -0 1.7089e-09)
(1.70814e-09 -5.35478e-10 -0 1.70814e-09 -0 1.70814e-09)
(1.7089e-09 -5.36225e-10 -0 1.7089e-09 -0 1.7089e-09)
(1.89343e-09 -8.216e-10 -0 1.89343e-09 -0 1.89343e-09)
(1.89268e-09 -8.17726e-10 -0 1.89268e-09 -0 1.89268e-09)
(1.89185e-09 -8.17001e-10 -0 1.89185e-09 -0 1.89185e-09)
(1.89267e-09 -8.18307e-10 -0 1.89267e-09 -0 1.89267e-09)
(2.07937e-09 -9.66909e-10 -0 2.07937e-09 -0 2.07937e-09)
(2.07869e-09 -9.66592e-10 -0 2.07869e-09 -0 2.07869e-09)
(2.07779e-09 -9.66173e-10 -0 2.07779e-09 -0 2.07779e-09)
(2.07868e-09 -9.66584e-10 -0 2.07868e-09 -0 2.07868e-09)
(2.26585e-09 -1.05362e-09 -0 2.26585e-09 -0 2.26585e-09)
(2.26525e-09 -1.05334e-09 -0 2.26525e-09 -0 2.26525e-09)
(2.26429e-09 -1.05289e-09 -0 2.26429e-09 -0 2.26429e-09)
(2.26523e-09 -1.05333e-09 -0 2.26523e-09 -0 2.26523e-09)
(2.45155e-09 -1.13997e-09 -0 2.45155e-09 -0 2.45155e-09)
(2.45104e-09 -1.13973e-09 -0 2.45104e-09 -0 2.45104e-09)
(2.45003e-09 -1.13926e-09 -0 2.45003e-09 -0 2.45003e-09)
(2.45102e-09 -1.13973e-09 -0 2.45102e-09 -0 2.45102e-09)
(2.63526e-09 -1.22539e-09 -0 2.63526e-09 -0 2.63526e-09)
(2.63485e-09 -1.2252e-09 -0 2.63485e-09 -0 2.63485e-09)
(2.63379e-09 -1.22471e-09 -0 2.63379e-09 -0 2.63379e-09)
(2.63483e-09 -1.2252e-09 -0 2.63483e-09 -0 2.63483e-09)
(2.81583e-09 -1.30936e-09 -0 2.81583e-09 -0 2.81583e-09)
(2.81552e-09 -1.30922e-09 -0 2.81552e-09 -0 2.81552e-09)
(2.81443e-09 -1.30871e-09 -0 2.81443e-09 -0 2.81443e-09)
(2.81552e-09 -1.30922e-09 -0 2.81552e-09 -0 2.81552e-09)
(2.99221e-09 -1.39138e-09 -0 2.99221e-09 -0 2.99221e-09)
(2.99199e-09 -1.39128e-09 -0 2.99199e-09 -0 2.99199e-09)
(2.99088e-09 -1.39076e-09 -0 2.99088e-09 -0 2.99088e-09)
(2.992e-09 -1.39128e-09 -0 2.992e-09 -0 2.992e-09)
(3.16338e-09 -1.47097e-09 -0 3.16338e-09 -0 3.16338e-09)
(3.16326e-09 -1.47092e-09 -0 3.16326e-09 -0 3.16326e-09)
(3.16214e-09 -1.4704e-09 -0 3.16214e-09 -0 3.16214e-09)
(3.16328e-09 -1.47093e-09 -0 3.16328e-09 -0 3.16328e-09)
(3.32894e-09 -1.54796e-09 -0 3.32894e-09 -0 3.32894e-09)
(3.32888e-09 -1.54793e-09 -0 3.32888e-09 -0 3.32888e-09)
(3.32773e-09 -1.54739e-09 -0 3.32773e-09 -0 3.32773e-09)
(3.32891e-09 -1.54794e-09 -0 3.32891e-09 -0 3.32891e-09)
(3.49024e-09 -1.62296e-09 -0 3.49024e-09 -0 3.49024e-09)
(3.49023e-09 -1.62295e-09 -0 3.49023e-09 -0 3.49023e-09)
(3.48902e-09 -1.6224e-09 -0 3.48902e-09 -0 3.48902e-09)
(3.49027e-09 -1.62297e-09 -0 3.49027e-09 -0 3.49027e-09)
(3.64828e-09 -1.69645e-09 -0 3.64828e-09 -0 3.64828e-09)
(3.64827e-09 -1.69645e-09 -0 3.64827e-09 -0 3.64827e-09)
(3.64701e-09 -1.69586e-09 -0 3.64701e-09 -0 3.64701e-09)
(3.64833e-09 -1.69647e-09 -0 3.64833e-09 -0 3.64833e-09)
(3.8037e-09 -1.76872e-09 -0 3.8037e-09 -0 3.8037e-09)
(3.80369e-09 -1.76872e-09 -0 3.80369e-09 -0 3.80369e-09)
(3.80237e-09 -1.7681e-09 -0 3.80237e-09 -0 3.80237e-09)
(3.80376e-09 -1.76875e-09 -0 3.80376e-09 -0 3.80376e-09)
(3.95691e-09 -1.83996e-09 -0 3.95691e-09 -0 3.95691e-09)
(3.9569e-09 -1.83996e-09 -0 3.9569e-09 -0 3.9569e-09)
(3.95551e-09 -1.83931e-09 -0 3.95551e-09 -0 3.95551e-09)
(3.95698e-09 -1.83999e-09 -0 3.95698e-09 -0 3.95698e-09)
(4.10816e-09 -1.9103e-09 -0 4.10816e-09 -0 4.10816e-09)
(4.10813e-09 -1.91028e-09 -0 4.10813e-09 -0 4.10813e-09)
(4.10667e-09 -1.9096e-09 -0 4.10667e-09 -0 4.10667e-09)
(4.10822e-09 -1.91032e-09 -0 4.10822e-09 -0 4.10822e-09)
(4.25753e-09 -1.97975e-09 -0 4.25753e-09 -0 4.25753e-09)
(4.25748e-09 -1.97973e-09 -0 4.25748e-09 -0 4.25748e-09)
(4.25595e-09 -1.97902e-09 -0 4.25595e-09 -0 4.25595e-09)
(4.25758e-09 -1.97978e-09 -0 4.25758e-09 -0 4.25758e-09)
(4.40502e-09 -2.04833e-09 -0 4.40502e-09 -0 4.40502e-09)
(4.40495e-09 -2.0483e-09 -0 4.40495e-09 -0 4.40495e-09)
(4.40334e-09 -2.04755e-09 -0 4.40334e-09 -0 4.40334e-09)
(4.40506e-09 -2.04835e-09 -0 4.40506e-09 -0 4.40506e-09)
(4.55053e-09 -2.116e-09 -0 4.55053e-09 -0 4.55053e-09)
(4.55043e-09 -2.11595e-09 -0 4.55043e-09 -0 4.55043e-09)
(4.54875e-09 -2.11517e-09 -0 4.54875e-09 -0 4.54875e-09)
(4.55057e-09 -2.11601e-09 -0 4.55057e-09 -0 4.55057e-09)
(4.69392e-09 -2.18267e-09 -0 4.69392e-09 -0 4.69392e-09)
(4.6938e-09 -2.18262e-09 -0 4.6938e-09 -0 4.6938e-09)
(4.69204e-09 -2.1818e-09 -0 4.69204e-09 -0 4.69204e-09)
(4.69395e-09 -2.18269e-09 -0 4.69395e-09 -0 4.69395e-09)
(4.83499e-09 -2.24827e-09 -0 4.83499e-09 -0 4.83499e-09)
(4.83486e-09 -2.24821e-09 -0 4.83486e-09 -0 4.83486e-09)
(4.83301e-09 -2.24735e-09 -0 4.83301e-09 -0 4.83301e-09)
(4.83502e-09 -2.24829e-09 -0 4.83502e-09 -0 4.83502e-09)
(4.97353e-09 -2.31269e-09 -0 4.97353e-09 -0 4.97353e-09)
(4.97337e-09 -2.31262e-09 -0 4.97337e-09 -0 4.97337e-09)
(4.97143e-09 -2.31171e-09 -0 4.97143e-09 -0 4.97143e-09)
(4.97356e-09 -2.31271e-09 -0 4.97356e-09 -0 4.97356e-09)
(5.10926e-09 -2.37581e-09 -0 5.10926e-09 -0 5.10926e-09)
(5.10908e-09 -2.37572e-09 -0 5.10908e-09 -0 5.10908e-09)
(5.10705e-09 -2.37478e-09 -0 5.10705e-09 -0 5.10705e-09)
(5.1093e-09 -2.37583e-09 -0 5.1093e-09 -0 5.1093e-09)
(5.24191e-09 -2.43749e-09 -0 5.24191e-09 -0 5.24191e-09)
(5.24171e-09 -2.4374e-09 -0 5.24171e-09 -0 5.24171e-09)
(5.23958e-09 -2.4364e-09 -0 5.23958e-09 -0 5.23958e-09)
(5.24196e-09 -2.43751e-09 -0 5.24196e-09 -0 5.24196e-09)
(5.37117e-09 -2.49759e-09 -0 5.37117e-09 -0 5.37117e-09)
(5.37094e-09 -2.49749e-09 -0 5.37094e-09 -0 5.37094e-09)
(5.36871e-09 -2.49645e-09 -0 5.36871e-09 -0 5.36871e-09)
(5.37124e-09 -2.49762e-09 -0 5.37124e-09 -0 5.37124e-09)
(5.4967e-09 -2.55597e-09 -0 5.4967e-09 -0 5.4967e-09)
(5.49645e-09 -2.55585e-09 -0 5.49645e-09 -0 5.49645e-09)
(5.49411e-09 -2.55476e-09 -0 5.49411e-09 -0 5.49411e-09)
(5.49679e-09 -2.55601e-09 -0 5.49679e-09 -0 5.49679e-09)
(5.61816e-09 -2.61245e-09 -0 5.61816e-09 -0 5.61816e-09)
(5.61788e-09 -2.61231e-09 -0 5.61788e-09 -0 5.61788e-09)
(5.61543e-09 -2.61117e-09 -0 5.61543e-09 -0 5.61543e-09)
(5.61827e-09 -2.6125e-09 -0 5.61827e-09 -0 5.61827e-09)
(5.73517e-09 -2.66685e-09 -0 5.73517e-09 -0 5.73517e-09)
(5.73485e-09 -2.6667e-09 -0 5.73485e-09 -0 5.73485e-09)
(5.73229e-09 -2.66551e-09 -0 5.73229e-09 -0 5.73229e-09)
(5.73531e-09 -2.66692e-09 -0 5.73531e-09 -0 5.73531e-09)
(5.84732e-09 -2.719e-09 -0 5.84732e-09 -0 5.84732e-09)
(5.84697e-09 -2.71884e-09 -0 5.84697e-09 -0 5.84697e-09)
(5.84429e-09 -2.71759e-09 -0 5.84429e-09 -0 5.84429e-09)
(5.8475e-09 -2.71909e-09 -0 5.8475e-09 -0 5.8475e-09)
(5.95419e-09 -2.7687e-09 -0 5.95419e-09 -0 5.95419e-09)
(5.95381e-09 -2.76852e-09 -0 5.95381e-09 -0 5.95381e-09)
(5.95101e-09 -2.76722e-09 -0 5.95101e-09 -0 5.95101e-09)
(5.95441e-09 -2.7688e-09 -0 5.95441e-09 -0 5.95441e-09)
(6.05535e-09 -2.81574e-09 -0 6.05535e-09 -0 6.05535e-09)
(6.05493e-09 -2.81554e-09 -0 6.05493e-09 -0 6.05493e-09)
(6.05201e-09 -2.81418e-09 -0 6.05201e-09 -0 6.05201e-09)
(6.05561e-09 -2.81586e-09 -0 6.05561e-09 -0 6.05561e-09)
(6.15032e-09 -2.8599e-09 -0 6.15032e-09 -0 6.15032e-09)
(6.14986e-09 -2.85969e-09 -0 6.14986e-09 -0 6.14986e-09)
(6.14682e-09 -2.85827e-09 -0 6.14682e-09 -0 6.14682e-09)
(6.15062e-09 -2.86004e-09 -0 6.15062e-09 -0 6.15062e-09)
(6.2386e-09 -2.90095e-09 -0 6.2386e-09 -0 6.2386e-09)
(6.23811e-09 -2.90072e-09 -0 6.23811e-09 -0 6.23811e-09)
(6.23493e-09 -2.89924e-09 -0 6.23493e-09 -0 6.23493e-09)
(6.23893e-09 -2.9011e-09 -0 6.23893e-09 -0 6.23893e-09)
(6.31966e-09 -2.93864e-09 -0 6.31966e-09 -0 6.31966e-09)
(6.31914e-09 -2.9384e-09 -0 6.31914e-09 -0 6.31914e-09)
(6.31583e-09 -2.93686e-09 -0 6.31583e-09 -0 6.31583e-09)
(6.32001e-09 -2.93881e-09 -0 6.32001e-09 -0 6.32001e-09)
(6.39297e-09 -2.97273e-09 -0 6.39297e-09 -0 6.39297e-09)
(6.3924e-09 -2.97247e-09 -0 6.3924e-09 -0 6.3924e-09)
(6.38896e-09 -2.97087e-09 -0 6.38896e-09 -0 6.38896e-09)
(6.3933e-09 -2.97288e-09 -0 6.3933e-09 -0 6.3933e-09)
(6.45793e-09 -3.00294e-09 -0 6.45793e-09 -0 6.45793e-09)
(6.45732e-09 -3.00265e-09 -0 6.45732e-09 -0 6.45732e-09)
(6.45374e-09 -3.00099e-09 -0 6.45374e-09 -0 6.45374e-09)
(6.45819e-09 -3.00306e-09 -0 6.45819e-09 -0 6.45819e-09)
(6.51394e-09 -3.02898e-09 -0 6.51394e-09 -0 6.51394e-09)
(6.51327e-09 -3.02867e-09 -0 6.51327e-09 -0 6.51327e-09)
(6.50956e-09 -3.02694e-09 -0 6.50956e-09 -0 6.50956e-09)
(6.51417e-09 -3.02909e-09 -0 6.51417e-09 -0 6.51417e-09)
(6.56035e-09 -3.05056e-09 -0 6.56035e-09 -0 6.56035e-09)
(6.55962e-09 -3.05022e-09 -0 6.55962e-09 -0 6.55962e-09)
(6.55577e-09 -3.04843e-09 -0 6.55577e-09 -0 6.55577e-09)
(6.56058e-09 -3.05067e-09 -0 6.56058e-09 -0 6.56058e-09)
(6.5965e-09 -3.06737e-09 -0 6.5965e-09 -0 6.5965e-09)
(6.59569e-09 -3.067e-09 -0 6.59569e-09 -0 6.59569e-09)
(6.5917e-09 -3.06514e-09 -0 6.5917e-09 -0 6.5917e-09)
(6.59674e-09 -3.06749e-09 -0 6.59674e-09 -0 6.59674e-09)
(6.62168e-09 -3.07908e-09 -0 6.62168e-09 -0 6.62168e-09)
(6.62079e-09 -3.07867e-09 -0 6.62079e-09 -0 6.62079e-09)
(6.61665e-09 -3.07674e-09 -0 6.61665e-09 -0 6.61665e-09)
(6.62194e-09 -3.0792e-09 -0 6.62194e-09 -0 6.62194e-09)
(6.63516e-09 -3.08535e-09 -0 6.63516e-09 -0 6.63516e-09)
(6.63418e-09 -3.08489e-09 -0 6.63418e-09 -0 6.63418e-09)
(6.6299e-09 -3.08291e-09 -0 6.6299e-09 -0 6.6299e-09)
(6.63545e-09 -3.08548e-09 -0 6.63545e-09 -0 6.63545e-09)
(6.63617e-09 -3.08582e-09 -0 6.63617e-09 -0 6.63617e-09)
(6.63511e-09 -3.08533e-09 -0 6.63511e-09 -0 6.63511e-09)
(6.6307e-09 -3.08328e-09 -0 6.6307e-09 -0 6.6307e-09)
(6.6365e-09 -3.08597e-09 -0 6.6365e-09 -0 6.6365e-09)
(6.62396e-09 -3.08014e-09 -0 6.62396e-09 -0 6.62396e-09)
(6.62282e-09 -3.07961e-09 -0 6.62282e-09 -0 6.62282e-09)
(6.61829e-09 -3.07751e-09 -0 6.61829e-09 -0 6.61829e-09)
(6.62434e-09 -3.08032e-09 -0 6.62434e-09 -0 6.62434e-09)
(6.59773e-09 -3.06795e-09 -0 6.59773e-09 -0 6.59773e-09)
(6.59653e-09 -3.06738e-09 -0 6.59653e-09 -0 6.59653e-09)
(6.5919e-09 -3.06523e-09 -0 6.5919e-09 -0 6.5919e-09)
(6.59817e-09 -3.06815e-09 -0 6.59817e-09 -0 6.59817e-09)
(6.55672e-09 -3.04888e-09 -0 6.55672e-09 -0 6.55672e-09)
(6.55545e-09 -3.04828e-09 -0 6.55545e-09 -0 6.55545e-09)
(6.55074e-09 -3.0461e-09 -0 6.55074e-09 -0 6.55074e-09)
(6.55721e-09 -3.0491e-09 -0 6.55721e-09 -0 6.55721e-09)
(6.50015e-09 -3.02257e-09 -0 6.50015e-09 -0 6.50015e-09)
(6.49883e-09 -3.02195e-09 -0 6.49883e-09 -0 6.49883e-09)
(6.49407e-09 -3.01974e-09 -0 6.49407e-09 -0 6.49407e-09)
(6.5007e-09 -3.02282e-09 -0 6.5007e-09 -0 6.5007e-09)
(6.42727e-09 -2.98868e-09 -0 6.42727e-09 -0 6.42727e-09)
(6.42591e-09 -2.98805e-09 -0 6.42591e-09 -0 6.42591e-09)
(6.42114e-09 -2.98583e-09 -0 6.42114e-09 -0 6.42114e-09)
(6.42786e-09 -2.98896e-09 -0 6.42786e-09 -0 6.42786e-09)
(6.33734e-09 -2.94686e-09 -0 6.33734e-09 -0 6.33734e-09)
(6.33597e-09 -2.94622e-09 -0 6.33597e-09 -0 6.33597e-09)
(6.33123e-09 -2.94402e-09 -0 6.33123e-09 -0 6.33123e-09)
(6.33798e-09 -2.94716e-09 -0 6.33798e-09 -0 6.33798e-09)
(6.22965e-09 -2.89679e-09 -0 6.22965e-09 -0 6.22965e-09)
(6.22831e-09 -2.89616e-09 -0 6.22831e-09 -0 6.22831e-09)
(6.22364e-09 -2.89399e-09 -0 6.22364e-09 -0 6.22364e-09)
(6.23033e-09 -2.8971e-09 -0 6.23033e-09 -0 6.23033e-09)
(6.10349e-09 -2.83813e-09 -0 6.10349e-09 -0 6.10349e-09)
(6.10221e-09 -2.83753e-09 -0 6.10221e-09 -0 6.10221e-09)
(6.09764e-09 -2.8354e-09 -0 6.09764e-09 -0 6.09764e-09)
(6.10418e-09 -2.83844e-09 -0 6.10418e-09 -0 6.10418e-09)
(5.95808e-09 -2.77051e-09 -0 5.95808e-09 -0 5.95808e-09)
(5.95691e-09 -2.76997e-09 -0 5.95691e-09 -0 5.95691e-09)
(5.95247e-09 -2.7679e-09 -0 5.95247e-09 -0 5.95247e-09)
(5.95874e-09 -2.77082e-09 -0 5.95874e-09 -0 5.95874e-09)
(5.79246e-09 -2.6935e-09 -0 5.79246e-09 -0 5.79246e-09)
(5.79147e-09 -2.69303e-09 -0 5.79147e-09 -0 5.79147e-09)
(5.78714e-09 -2.69102e-09 -0 5.78714e-09 -0 5.78714e-09)
(5.79305e-09 -2.69377e-09 -0 5.79305e-09 -0 5.79305e-09)
(5.60533e-09 -2.60648e-09 -0 5.60533e-09 -0 5.60533e-09)
(5.60455e-09 -2.60611e-09 -0 5.60455e-09 -0 5.60455e-09)
(5.60026e-09 -2.60412e-09 -0 5.60026e-09 -0 5.60026e-09)
(5.60574e-09 -2.60667e-09 -0 5.60574e-09 -0 5.60574e-09)
(5.39473e-09 -2.50855e-09 -0 5.39473e-09 -0 5.39473e-09)
(5.39414e-09 -2.50828e-09 -0 5.39414e-09 -0 5.39414e-09)
(5.38969e-09 -2.50621e-09 -0 5.38969e-09 -0 5.38969e-09)
(5.3948e-09 -2.50858e-09 -0 5.3948e-09 -0 5.3948e-09)
(5.16083e-09 -2.39979e-09 -0 5.16083e-09 -0 5.16083e-09)
(5.16038e-09 -2.39957e-09 -0 5.16038e-09 -0 5.16038e-09)
(5.15579e-09 -2.39744e-09 -0 5.15579e-09 -0 5.15579e-09)
(5.16061e-09 -2.39968e-09 -0 5.16061e-09 -0 5.16061e-09)
(4.90504e-09 -2.28085e-09 -0 4.90504e-09 -0 4.90504e-09)
(4.90467e-09 -2.28067e-09 -0 4.90467e-09 -0 4.90467e-09)
(4.89996e-09 -2.27848e-09 -0 4.89996e-09 -0 4.89996e-09)
(4.90453e-09 -2.2806e-09 -0 4.90453e-09 -0 4.90453e-09)
(4.62896e-09 -2.15247e-09 -0 4.62896e-09 -0 4.62896e-09)
(4.62863e-09 -2.15231e-09 -0 4.62863e-09 -0 4.62863e-09)
(4.62378e-09 -2.15006e-09 -0 4.62378e-09 -0 4.62378e-09)
(4.62814e-09 -2.15208e-09 -0 4.62814e-09 -0 4.62814e-09)
(4.33451e-09 -2.01555e-09 -0 4.33451e-09 -0 4.33451e-09)
(4.33417e-09 -2.01539e-09 -0 4.33417e-09 -0 4.33417e-09)
(4.32917e-09 -2.01306e-09 -0 4.32917e-09 -0 4.32917e-09)
(4.33335e-09 -2.01501e-09 -0 4.33335e-09 -0 4.33335e-09)
(4.02444e-09 -1.87137e-09 -0 4.02444e-09 -0 4.02444e-09)
(4.0241e-09 -1.87121e-09 -0 4.0241e-09 -0 4.0241e-09)
(4.01894e-09 -1.86881e-09 -0 4.01894e-09 -0 4.01894e-09)
(4.02295e-09 -1.87067e-09 -0 4.02295e-09 -0 4.02295e-09)
(3.70289e-09 -1.72184e-09 -0 3.70289e-09 -0 3.70289e-09)
(3.70254e-09 -1.72168e-09 -0 3.70254e-09 -0 3.70254e-09)
(3.69725e-09 -1.69944e-09 -0 3.69725e-09 -0 3.69725e-09)
(3.70107e-09 -1.721e-09 -0 3.70107e-09 -0 3.70107e-09)
(3.37453e-09 -1.07734e-09 -0 3.37453e-09 -0 3.37453e-09)
(3.37417e-09 -1.06902e-09 -0 3.37417e-09 -0 3.37417e-09)
(3.3689e-09 -1.05229e-09 -0 3.3689e-09 -0 3.3689e-09)
(3.37238e-09 -1.07132e-09 -0 3.37238e-09 -0 3.37238e-09)
(3.04786e-09 -6.80365e-10 -0 3.04786e-09 -0 3.04786e-09)
(3.04758e-09 -6.76232e-10 -0 3.04758e-09 -0 3.04758e-09)
(3.04248e-09 -6.66643e-10 -0 3.04248e-09 -0 3.04248e-09)
(3.04546e-09 -6.76567e-10 -0 3.04546e-09 -0 3.04546e-09)
(2.72976e-09 -4.37073e-10 -0 2.72976e-09 -0 2.72976e-09)
(2.72961e-09 -4.3545e-10 -0 2.72961e-09 -0 2.72961e-09)
(2.72476e-09 -4.29733e-10 -0 2.72476e-09 -0 2.72476e-09)
(2.72718e-09 -4.34834e-10 -0 2.72718e-09 -0 2.72718e-09)
(2.42596e-09 -2.84945e-10 -0 2.42596e-09 -0 2.42596e-09)
(2.42596e-09 -2.848e-10 -0 2.42596e-09 -0 2.42596e-09)
(2.42141e-09 -2.81256e-10 -0 2.42141e-09 -0 2.42141e-09)
(2.42325e-09 -2.83812e-10 -0 2.42325e-09 -0 2.42325e-09)
(2.14127e-09 -1.88992e-10 -0 2.14127e-09 -0 2.14127e-09)
(2.14147e-09 -1.88997e-10 -0 2.14147e-09 -0 2.14147e-09)
(2.13725e-09 -1.86828e-10 -0 2.13725e-09 -0 2.13725e-09)
(2.13855e-09 -1.88098e-10 -0 2.13855e-09 -0 2.13855e-09)
(1.8796e-09 -1.27398e-10 -0 1.8796e-09 -0 1.8796e-09)
(1.88003e-09 -1.27452e-10 -0 1.88003e-09 -0 1.88003e-09)
(1.87616e-09 -1.26096e-10 -0 1.87616e-09 -0 1.87616e-09)
(1.87698e-09 -1.26724e-10 -0 1.87698e-09 -0 1.87698e-09)
(1.64388e-09 -8.73881e-11 -0 1.64388e-09 -0 1.64388e-09)
(1.64455e-09 -8.74552e-11 -0 1.64455e-09 -0 1.64455e-09)
(1.64103e-09 -8.65953e-11 -0 1.64103e-09 -0 1.64103e-09)
(1.64148e-09 -8.69126e-11 -0 1.64148e-09 -0 1.64148e-09)
(1.43588e-09 -6.0922e-11 -0 1.43588e-09 -0 1.43588e-09)
(1.43676e-09 -6.10286e-11 -0 1.43676e-09 -0 1.43676e-09)
(1.43357e-09 -6.04562e-11 -0 1.43357e-09 -0 1.43357e-09)
(1.43378e-09 -6.06353e-11 -0 1.43378e-09 -0 1.43378e-09)
(1.25624e-09 -4.29829e-11 -0 1.25624e-09 -0 1.25624e-09)
(1.25728e-09 -4.30882e-11 -0 1.25728e-09 -0 1.25728e-09)
(1.25438e-09 -4.26853e-11 -0 1.25438e-09 -0 1.25438e-09)
(1.25446e-09 -4.28124e-11 -0 1.25446e-09 -0 1.25446e-09)
(1.10468e-09 -3.03827e-11 -0 1.10468e-09 -0 1.10468e-09)
(1.10582e-09 -3.0468e-11 -0 1.10582e-09 -0 1.10582e-09)
(1.10317e-09 -3.01737e-11 -0 1.10317e-09 -0 1.10317e-09)
(1.1032e-09 -3.02791e-11 -0 1.1032e-09 -0 1.1032e-09)
(9.80433e-10 -2.13036e-11 -0 9.80433e-10 -0 9.80433e-10)
(9.81627e-10 -2.13668e-11 -0 9.81627e-10 -0 9.81627e-10)
(9.79185e-10 -2.11528e-11 -0 9.79185e-10 -0 9.79185e-10)
(9.79206e-10 -2.1242e-11 -0 9.79206e-10 -0 9.79206e-10)
(8.82523e-10 -1.46268e-11 -0 8.82523e-10 -0 8.82523e-10)
(8.83733e-10 -1.46703e-11 -0 8.83733e-10 -0 8.83733e-10)
(8.81462e-10 -1.45195e-11 -0 8.81462e-10 -0 8.81462e-10)
(8.81501e-10 -1.45924e-11 -0 8.81501e-10 -0 8.81501e-10)
(8.09972e-10 -9.54704e-12 -0 8.09972e-10 -0 8.09972e-10)
(8.11173e-10 -9.57454e-12 -0 8.11173e-10 -0 8.11173e-10)
(8.09037e-10 -9.47454e-12 -0 8.09037e-10 -0 8.09037e-10)
(8.09101e-10 -9.5293e-12 -0 8.09101e-10 -0 8.09101e-10)
(7.61943e-10 -5.43631e-12 -0 7.61943e-10 -0 7.61943e-10)
(7.63127e-10 -5.45115e-12 -0 7.63127e-10 -0 7.63127e-10)
(7.61085e-10 -5.39394e-12 -0 7.61085e-10 -0 7.61085e-10)
(7.61171e-10 -5.42818e-12 -0 7.61171e-10 -0 7.61171e-10)
(7.37906e-10 -1.78645e-12 -0 7.37906e-10 -0 7.37906e-10)
(7.39077e-10 -1.79106e-12 -0 7.39077e-10 -0 7.39077e-10)
(7.37085e-10 -1.77228e-12 -0 7.37085e-10 -0 7.37085e-10)
(7.37182e-10 -1.78407e-12 -0 7.37182e-10 -0 7.37182e-10)
)
;

boundaryField
{
    inlet
    {
        type            cyclic;
    }
    outlet
    {
        type            cyclic;
    }
    fixedWalls-bottom
    {
        type            kqRWallFunction;
        value           nonuniform List<symmTensor> 4((1.45556e-15 -0 -0 1.45556e-15 -0 1.45556e-15) (1.45424e-15 -0 -0 1.45424e-15 -0 1.45424e-15) (1.45356e-15 -0 -0 1.45356e-15 -0 1.45356e-15) (1.45441e-15 -0 -0 1.45441e-15 -0 1.45441e-15));
    }
    fixedWalls-top
    {
        type            symmetry;
    }
    frontAndBack
    {
        type            empty;
    }
}


// ************************************************************************* //
