/*--------------------------------*- C++ -*----------------------------------*\
  =========                 |
  \\      /  F ield         | OpenFOAM: The Open Source CFD Toolbox
   \\    /   O peration     | Website:  https://openfoam.org
    \\  /    A nd           | Version:  10
     \\/     M anipulation  |
\*---------------------------------------------------------------------------*/
FoamFile
{
    format      ascii;
    class       volVectorField;
    location    "10000";
    object      U;
}
// * * * * * * * * * * * * * * * * * * * * * * * * * * * * * * * * * * * * * //

dimensions      [0 1 -1 0 0 0 0];

internalField   nonuniform List<vector> 
400
(
(0.00692015 -2.3282e-17 0)
(0.00692015 -1.10206e-17 0)
(0.00692015 9.17294e-19 0)
(0.00692015 1.09625e-17 0)
(0.0207937 -1.51339e-18 0)
(0.0207937 -7.66468e-17 0)
(0.0207937 -1.52551e-17 0)
(0.0207937 7.66449e-17 0)
(0.0347968 2.74399e-17 0)
(0.0347968 -1.56161e-16 0)
(0.0347968 -5.32722e-17 0)
(0.0347968 1.56199e-16 0)
(0.0489294 9.60467e-17 0)
(0.0489294 -2.24145e-16 0)
(0.0489294 -1.22135e-16 0)
(0.0489294 2.24281e-16 0)
(0.0631913 2.01597e-16 0)
(0.0631913 -2.42696e-16 0)
(0.0631913 -2.27463e-16 0)
(0.0631913 2.42962e-16 0)
(0.0775823 3.49292e-16 0)
(0.0775823 -1.73208e-16 0)
(0.0775823 -3.7549e-16 0)
(0.0775823 1.73515e-16 0)
(0.0921024 5.47011e-16 0)
(0.0921024 2.45e-17 0)
(0.0921024 -5.73641e-16 0)
(0.0921024 -2.41088e-17 0)
(0.106751 8.02357e-16 0)
(0.106751 3.94152e-16 0)
(0.106751 -8.29262e-16 0)
(0.106751 -3.93648e-16 0)
(0.121528 1.12307e-15 0)
(0.121528 9.82006e-16 0)
(0.121528 -1.15031e-15 0)
(0.121528 -9.81377e-16 0)
(0.136433 1.51795e-15 0)
(0.136433 1.83748e-15 0)
(0.136433 -1.54555e-15 0)
(0.136433 -1.83671e-15 0)
(0.151466 1.99619e-15 0)
(0.151466 3.01186e-15 0)
(0.151466 -2.02426e-15 0)
(0.151466 -3.01091e-15 0)
(0.166625 2.56737e-15 0)
(0.166625 4.56006e-15 0)
(0.166625 -2.59608e-15 0)
(0.166625 -4.55859e-15 0)
(0.18191 3.24219e-15 0)
(0.18191 6.53927e-15 0)
(0.18191 -3.27145e-15 0)
(0.18191 -6.53751e-15 0)
(0.197322 4.03224e-15 0)
(0.197322 9.00974e-15 0)
(0.197322 -4.06183e-15 0)
(0.197322 -9.00774e-15 0)
(0.212857 4.94946e-15 0)
(0.212857 1.20333e-14 0)
(0.212857 -4.97947e-15 0)
(0.212857 -1.20311e-14 0)
(0.228517 6.00759e-15 0)
(0.228517 1.56744e-14 0)
(0.228517 -6.03758e-15 0)
(0.228517 -1.56723e-14 0)
(0.2443 7.22192e-15 0)
(0.2443 1.99967e-14 0)
(0.2443 -7.25128e-15 0)
(0.2443 -1.99952e-14 0)
(0.260205 8.6073e-15 0)
(0.260205 2.50624e-14 0)
(0.260205 -8.63628e-15 0)
(0.260205 -2.50613e-14 0)
(0.27623 1.0181e-14 0)
(0.27623 3.09273e-14 0)
(0.27623 -1.02099e-14 0)
(0.27623 -3.09264e-14 0)
(0.292375 1.19602e-14 0)
(0.292375 3.76367e-14 0)
(0.292375 -1.19891e-14 0)
(0.292375 -3.76355e-14 0)
(0.308638 1.39609e-14 0)
(0.308638 4.52092e-14 0)
(0.308638 -1.39894e-14 0)
(0.308638 -4.52082e-14 0)
(0.325018 1.61965e-14 0)
(0.325018 5.36161e-14 0)
(0.325018 -1.62241e-14 0)
(0.325018 -5.36164e-14 0)
(0.341513 1.867e-14 0)
(0.341513 6.27454e-14 0)
(0.341513 -1.86972e-14 0)
(0.341513 -6.27466e-14 0)
(0.358121 2.13668e-14 0)
(0.358121 7.23568e-14 0)
(0.358121 -2.13934e-14 0)
(0.358121 -7.23582e-14 0)
(0.374841 2.42326e-14 0)
(0.374841 8.19768e-14 0)
(0.374841 -2.4259e-14 0)
(0.374841 -8.19781e-14 0)
(0.391672 2.71169e-14 0)
(0.391672 9.04998e-14 0)
(0.391672 -2.71423e-14 0)
(0.391672 -9.05019e-14 0)
(0.40861 2.96756e-14 0)
(0.40861 9.52982e-14 0)
(0.40861 -2.96998e-14 0)
(0.40861 -9.53013e-14 0)
(0.425653 3.14046e-14 0)
(0.425653 9.19994e-14 0)
(0.425653 -3.14285e-14 0)
(0.425653 -9.20025e-14 0)
(0.4428 3.29295e-14 0)
(0.4428 8.43398e-14 0)
(0.4428 -3.29527e-14 0)
(0.4428 -8.4343e-14 0)
(0.460048 3.40736e-14 0)
(0.460048 7.04635e-14 0)
(0.460048 -3.40972e-14 0)
(0.460048 -7.04661e-14 0)
(0.477394 3.57601e-14 0)
(0.477394 5.68555e-14 0)
(0.477394 -3.57845e-14 0)
(0.477394 -5.68576e-14 0)
(0.494836 3.79279e-14 0)
(0.494836 4.35665e-14 0)
(0.494836 -3.79523e-14 0)
(0.494836 -4.35683e-14 0)
(0.51237 4.04612e-14 0)
(0.51237 3.03394e-14 0)
(0.51237 -4.04857e-14 0)
(0.51237 -3.03409e-14 0)
(0.529995 4.32855e-14 0)
(0.529995 1.72768e-14 0)
(0.529995 -4.33096e-14 0)
(0.529995 -1.72788e-14 0)
(0.547705 4.63388e-14 0)
(0.547705 4.65736e-15 0)
(0.547705 -4.63623e-14 0)
(0.547705 -4.65939e-15 0)
(0.565499 4.95623e-14 0)
(0.565499 -7.2676e-15 0)
(0.565499 -4.95837e-14 0)
(0.565499 7.26389e-15 0)
(0.583373 5.28976e-14 0)
(0.583373 -1.82906e-14 0)
(0.583373 -5.29182e-14 0)
(0.583373 1.82859e-14 0)
(0.601322 5.62854e-14 0)
(0.601322 -2.82752e-14 0)
(0.601322 -5.63057e-14 0)
(0.601322 2.82714e-14 0)
(0.619343 5.96705e-14 0)
(0.619343 -3.71389e-14 0)
(0.619343 -5.9689e-14 0)
(0.619343 3.71334e-14 0)
(0.637431 6.29971e-14 0)
(0.637431 -4.48298e-14 0)
(0.637431 -6.3016e-14 0)
(0.637431 4.48239e-14 0)
(0.655584 6.62131e-14 0)
(0.655584 -5.13169e-14 0)
(0.655584 -6.62338e-14 0)
(0.655584 5.13123e-14 0)
(0.673794 6.92722e-14 0)
(0.673794 -5.65869e-14 0)
(0.673794 -6.92943e-14 0)
(0.673794 5.6584e-14 0)
(0.692059 7.21312e-14 0)
(0.692059 -6.06318e-14 0)
(0.692059 -7.21547e-14 0)
(0.692059 6.063e-14 0)
(0.710374 7.47545e-14 0)
(0.710374 -6.34507e-14 0)
(0.710374 -7.47775e-14 0)
(0.710374 6.34486e-14 0)
(0.728731 7.7117e-14 0)
(0.728731 -6.50403e-14 0)
(0.728731 -7.71385e-14 0)
(0.728731 6.5037e-14 0)
(0.747128 7.9199e-14 0)
(0.747128 -6.54054e-14 0)
(0.747128 -7.92196e-14 0)
(0.747128 6.53997e-14 0)
(0.765557 8.09863e-14 0)
(0.765557 -6.45512e-14 0)
(0.765557 -8.10076e-14 0)
(0.765557 6.45462e-14 0)
(0.784012 8.24736e-14 0)
(0.784012 -6.25044e-14 0)
(0.784012 -8.2493e-14 0)
(0.784012 6.2499e-14 0)
(0.802488 8.36578e-14 0)
(0.802488 -5.93e-14 0)
(0.802488 -8.36747e-14 0)
(0.802488 5.92921e-14 0)
(0.820978 8.45328e-14 0)
(0.820978 -5.49861e-14 0)
(0.820978 -8.45505e-14 0)
(0.820978 5.49792e-14 0)
(0.839475 8.50936e-14 0)
(0.839475 -4.96363e-14 0)
(0.839475 -8.51119e-14 0)
(0.839475 4.96297e-14 0)
(0.857972 8.53307e-14 0)
(0.857972 -4.33392e-14 0)
(0.857972 -8.535e-14 0)
(0.857972 4.33329e-14 0)
(0.876462 8.52262e-14 0)
(0.876462 -3.62028e-14 0)
(0.876462 -8.52484e-14 0)
(0.876462 3.61992e-14 0)
(0.894936 8.47581e-14 0)
(0.894936 -2.83577e-14 0)
(0.894936 -8.47827e-14 0)
(0.894936 2.83582e-14 0)
(0.913387 8.38966e-14 0)
(0.913387 -1.99488e-14 0)
(0.913387 -8.39224e-14 0)
(0.913387 1.99519e-14 0)
(0.931807 8.25932e-14 0)
(0.931807 -1.11261e-14 0)
(0.931807 -8.26192e-14 0)
(0.931807 1.11285e-14 0)
(0.950186 8.08105e-14 0)
(0.950186 -2.04355e-15 0)
(0.950186 -8.08342e-14 0)
(0.950186 2.04229e-15 0)
(0.968516 7.85074e-14 0)
(0.968516 7.14987e-15 0)
(0.968516 -7.85269e-14 0)
(0.968516 -7.15637e-15 0)
(0.986787 7.56585e-14 0)
(0.986787 1.62905e-14 0)
(0.986787 -7.56768e-14 0)
(0.986787 -1.62981e-14 0)
(1.00499 7.22808e-14 0)
(1.00499 2.52207e-14 0)
(1.00499 -7.22992e-14 0)
(1.00499 -2.52282e-14 0)
(1.02311 6.84584e-14 0)
(1.02311 3.37829e-14 0)
(1.02311 -6.84797e-14 0)
(1.02311 -3.37872e-14 0)
(1.04115 6.4283e-14 0)
(1.04115 4.1812e-14 0)
(1.04115 -6.43068e-14 0)
(1.04115 -4.18115e-14 0)
(1.05908 5.9807e-14 0)
(1.05908 4.91104e-14 0)
(1.05908 -5.98328e-14 0)
(1.05908 -4.91089e-14 0)
(1.0769 5.4974e-14 0)
(1.0769 5.54277e-14 0)
(1.0769 -5.49951e-14 0)
(1.0769 -5.54326e-14 0)
(1.0946 4.96116e-14 0)
(1.0946 6.04498e-14 0)
(1.0946 -4.96204e-14 0)
(1.0946 -6.04662e-14 0)
(1.11216 4.34421e-14 0)
(1.11216 6.38145e-14 0)
(1.11216 -4.34405e-14 0)
(1.11216 -6.38414e-14 0)
(1.12957 3.60735e-14 0)
(1.12957 6.51351e-14 0)
(1.12957 -3.60691e-14 0)
(1.12957 -6.51669e-14 0)
(1.14682 2.69849e-14 0)
(1.14682 6.40198e-14 0)
(1.14682 -2.69818e-14 0)
(1.14682 -6.40508e-14 0)
(1.16389 1.5507e-14 0)
(1.16389 6.01377e-14 0)
(1.16389 -1.55032e-14 0)
(1.16389 -6.01676e-14 0)
(1.18077 8.08362e-16 0)
(1.18077 5.32854e-14 0)
(1.18077 -8.06533e-16 0)
(1.18077 -5.33121e-14 0)
(1.19744 -1.811e-14 0)
(1.19744 4.34481e-14 0)
(1.19744 1.81126e-14 0)
(1.19744 -4.34757e-14 0)
(1.21389 -4.24185e-14 0)
(1.21389 3.09149e-14 0)
(1.21389 4.242e-14 0)
(1.21389 -3.09419e-14 0)
(1.23011 -7.34317e-14 0)
(1.23011 1.63638e-14 0)
(1.23011 7.34286e-14 0)
(1.23011 -1.63849e-14 0)
(1.24607 -1.12542e-13 0)
(1.24607 1.03039e-15 0)
(1.24607 1.1254e-13 0)
(1.24607 -1.05062e-15 0)
(1.26176 -1.61178e-13 0)
(1.26176 -1.31082e-14 0)
(1.26176 1.61177e-13 0)
(1.26176 1.30841e-14 0)
(1.27716 -2.20629e-13 0)
(1.27716 -2.31593e-14 0)
(1.27716 2.20623e-13 0)
(1.27716 2.31416e-14 0)
(1.29225 -2.91773e-13 0)
(1.29225 -2.51672e-14 0)
(1.29225 2.91758e-13 0)
(1.29225 2.51634e-14 0)
(1.30701 -3.74697e-13 0)
(1.30701 -1.41813e-14 0)
(1.30701 3.74678e-13 0)
(1.30701 1.41826e-14 0)
(1.32143 -4.68083e-13 0)
(1.32143 1.53445e-14 0)
(1.32143 4.68067e-13 0)
(1.32143 -1.53443e-14 0)
(1.33548 -5.70003e-13 0)
(1.33548 6.94123e-14 0)
(1.33548 5.69986e-13 0)
(1.33548 -6.94099e-14 0)
(1.34914 -6.76859e-13 0)
(1.34914 1.54251e-13 0)
(1.34914 6.76844e-13 0)
(1.34914 -1.54248e-13 0)
(1.36238 -7.84154e-13 0)
(1.36238 2.79939e-13 0)
(1.36238 7.84141e-13 0)
(1.36238 -2.79939e-13 0)
(1.3752 -8.84896e-13 0)
(1.3752 4.67147e-13 0)
(1.3752 8.84883e-13 0)
(1.3752 -4.67146e-13 0)
(1.38755 -9.67743e-13 0)
(1.38755 7.35182e-13 0)
(1.38755 9.67727e-13 0)
(1.38755 -7.35178e-13 0)
(1.39942 -1.01585e-12 0)
(1.39942 9.40364e-13 0)
(1.39942 1.01582e-12 0)
(1.39942 -9.40352e-13 0)
(1.41078 -1.03782e-12 0)
(1.41078 1.03331e-12 0)
(1.41078 1.03779e-12 0)
(1.41078 -1.0333e-12 0)
(1.42161 -1.01424e-12 0)
(1.42161 9.40533e-13 0)
(1.42161 1.01423e-12 0)
(1.42161 -9.40528e-13 0)
(1.43187 -9.64821e-13 0)
(1.43187 7.01556e-13 0)
(1.43187 9.64814e-13 0)
(1.43187 -7.01558e-13 0)
(1.44155 -8.82822e-13 0)
(1.44155 4.43423e-13 0)
(1.44155 8.82802e-13 0)
(1.44155 -4.43414e-13 0)
(1.4506 -7.74059e-13 0)
(1.4506 2.20615e-13 0)
(1.4506 7.74027e-13 0)
(1.4506 -2.20592e-13 0)
(1.45901 -6.50187e-13 0)
(1.45901 4.91031e-14 0)
(1.45901 6.50159e-13 0)
(1.45901 -4.90831e-14 0)
(1.46673 -5.23986e-13 0)
(1.46673 -7.34944e-14 0)
(1.46673 5.23968e-13 0)
(1.46673 7.35046e-14 0)
(1.47374 -4.05148e-13 0)
(1.47374 -1.52286e-13 0)
(1.47374 4.05139e-13 0)
(1.47374 1.52287e-13 0)
(1.48001 -3.00069e-13 0)
(1.48001 -1.9385e-13 0)
(1.48001 3.0007e-13 0)
(1.48001 1.93841e-13 0)
(1.48549 -2.12156e-13 0)
(1.48549 -2.05261e-13 0)
(1.48549 2.1216e-13 0)
(1.48549 2.05251e-13 0)
(1.49015 -1.42411e-13 0)
(1.49015 -1.93689e-13 0)
(1.49015 1.4242e-13 0)
(1.49015 1.93679e-13 0)
(1.49396 -8.99568e-14 0)
(1.49396 -1.65468e-13 0)
(1.49396 8.99677e-14 0)
(1.49396 1.65457e-13 0)
(1.49688 -5.24813e-14 0)
(1.49688 -1.25687e-13 0)
(1.49688 5.24873e-14 0)
(1.49688 1.2568e-13 0)
(1.49887 -2.65794e-14 0)
(1.49887 -7.8331e-14 0)
(1.49887 2.65846e-14 0)
(1.49887 7.8322e-14 0)
(1.49988 -8.12973e-15 0)
(1.49988 -2.65749e-14 0)
(1.49988 8.13285e-15 0)
(1.49988 2.65736e-14 0)
)
;

boundaryField
{
    inlet
    {
        type            cyclic;
    }
    outlet
    {
        type            cyclic;
    }
    fixedWalls-bottom
    {
        type            noSlip;
    }
    fixedWalls-top
    {
        type            symmetry;
    }
    frontAndBack
    {
        type            empty;
    }
}


// ************************************************************************* //
