/*--------------------------------*- C++ -*----------------------------------*\
  =========                 |
  \\      /  F ield         | OpenFOAM: The Open Source CFD Toolbox
   \\    /   O peration     | Website:  https://openfoam.org
    \\  /    A nd           | Version:  10
     \\/     M anipulation  |
\*---------------------------------------------------------------------------*/
FoamFile
{
    format      ascii;
    class       volScalarField;
    location    "10000";
    object      nut;
}
// * * * * * * * * * * * * * * * * * * * * * * * * * * * * * * * * * * * * * //

dimensions      [0 2 -1 0 0 0 0];

internalField   nonuniform List<scalar> 
400
(
3.9196e-16
3.91561e-16
3.91428e-16
3.91616e-16
6.87425e-14
6.86727e-14
6.86494e-14
6.86825e-14
1.44733e-12
1.44586e-12
1.44537e-12
1.44607e-12
1.12035e-11
1.11921e-11
1.11883e-11
1.11937e-11
5.12621e-11
5.12096e-11
5.11923e-11
5.12171e-11
1.7117e-10
1.70993e-10
1.70936e-10
1.71019e-10
4.64489e-10
4.64008e-10
4.63853e-10
4.64082e-10
1.08922e-09
1.08808e-09
1.08772e-09
1.08826e-09
2.29314e-09
2.29074e-09
2.28998e-09
2.29115e-09
4.44647e-09
4.44176e-09
4.44032e-09
4.44264e-09
8.08668e-09
8.07801e-09
8.07543e-09
8.07977e-09
1.39851e-08
1.39698e-08
1.39654e-08
1.39731e-08
2.32499e-08
2.32237e-08
2.32165e-08
2.32299e-08
3.74887e-08
3.74443e-08
3.74331e-08
3.74553e-08
5.90617e-08
5.89872e-08
5.89697e-08
5.90058e-08
9.14754e-08
9.135e-08
9.13234e-08
9.13808e-08
1.39991e-07
1.39779e-07
1.39738e-07
1.39828e-07
2.12567e-07
2.12204e-07
2.12143e-07
2.12284e-07
3.21324e-07
3.20698e-07
3.20606e-07
3.20827e-07
4.84835e-07
4.83749e-07
4.83608e-07
4.8396e-07
7.31715e-07
7.2983e-07
7.29609e-07
7.30179e-07
1.10627e-06
1.103e-06
1.10265e-06
1.10359e-06
1.67734e-06
1.67169e-06
1.6711e-06
1.67269e-06
2.55204e-06
2.54234e-06
2.54129e-06
2.54409e-06
3.89661e-06
3.88014e-06
3.87834e-06
3.88324e-06
5.96642e-06
5.93929e-06
5.9358e-06
5.94467e-06
9.14504e-06
9.10204e-06
9.09448e-06
9.11157e-06
1.1958e-05
1.19537e-05
1.19497e-05
1.19525e-05
1.32248e-05
1.32211e-05
1.32168e-05
1.32196e-05
1.45131e-05
1.451e-05
1.45054e-05
1.45083e-05
1.58153e-05
1.58129e-05
1.58081e-05
1.58109e-05
1.71238e-05
1.71221e-05
1.71172e-05
1.71199e-05
1.84311e-05
1.84303e-05
1.84252e-05
1.84278e-05
1.97302e-05
1.97302e-05
1.97251e-05
1.97274e-05
2.10139e-05
2.10149e-05
2.10097e-05
2.10119e-05
2.22897e-05
2.22914e-05
2.2286e-05
2.22882e-05
2.35674e-05
2.35696e-05
2.35638e-05
2.35664e-05
2.48545e-05
2.48571e-05
2.48509e-05
2.4854e-05
2.61566e-05
2.61594e-05
2.61528e-05
2.61565e-05
2.74778e-05
2.74807e-05
2.74737e-05
2.74781e-05
2.88211e-05
2.88239e-05
2.88165e-05
2.88217e-05
3.01886e-05
3.01912e-05
3.01833e-05
3.01895e-05
3.15817e-05
3.15839e-05
3.15755e-05
3.15828e-05
3.30012e-05
3.3003e-05
3.2994e-05
3.30025e-05
3.44477e-05
3.44488e-05
3.44393e-05
3.44492e-05
3.59212e-05
3.59216e-05
3.59114e-05
3.5923e-05
3.74217e-05
3.74212e-05
3.74102e-05
3.74238e-05
3.89486e-05
3.89471e-05
3.89352e-05
3.8951e-05
4.05012e-05
4.04987e-05
4.04858e-05
4.05042e-05
4.20786e-05
4.2075e-05
4.2061e-05
4.20822e-05
4.36796e-05
4.36748e-05
4.36595e-05
4.3684e-05
4.53025e-05
4.52964e-05
4.52798e-05
4.53078e-05
4.69455e-05
4.69381e-05
4.692e-05
4.6952e-05
4.86063e-05
4.85974e-05
4.85778e-05
4.86141e-05
5.02821e-05
5.02716e-05
5.02504e-05
5.02914e-05
5.19696e-05
5.19576e-05
5.19346e-05
5.19808e-05
5.36651e-05
5.36514e-05
5.36267e-05
5.36783e-05
5.5364e-05
5.53485e-05
5.53221e-05
5.53795e-05
5.70611e-05
5.70439e-05
5.70156e-05
5.70792e-05
5.87502e-05
5.87313e-05
5.87012e-05
5.87714e-05
6.04244e-05
6.04038e-05
6.03718e-05
6.04488e-05
6.20754e-05
6.20533e-05
6.20195e-05
6.21035e-05
6.36939e-05
6.36705e-05
6.36349e-05
6.37261e-05
6.52693e-05
6.52448e-05
6.52074e-05
6.53058e-05
6.67894e-05
6.6764e-05
6.6725e-05
6.68304e-05
6.82406e-05
6.82146e-05
6.8174e-05
6.8286e-05
6.96074e-05
6.95809e-05
6.95388e-05
6.96568e-05
7.08722e-05
7.08457e-05
7.08022e-05
7.09252e-05
7.20155e-05
7.19895e-05
7.19445e-05
7.20712e-05
7.30158e-05
7.29906e-05
7.29442e-05
7.30726e-05
7.38486e-05
7.38248e-05
7.37769e-05
7.39045e-05
7.44868e-05
7.44646e-05
7.44151e-05
7.45386e-05
7.48991e-05
7.48789e-05
7.4827e-05
7.49426e-05
7.50479e-05
7.503e-05
7.49745e-05
7.50769e-05
7.48842e-05
7.48695e-05
7.48072e-05
7.48906e-05
7.43561e-05
7.4345e-05
7.42756e-05
7.43437e-05
7.34444e-05
7.34361e-05
7.33588e-05
7.34149e-05
7.213e-05
7.21239e-05
7.20379e-05
7.20855e-05
7.03964e-05
7.03921e-05
7.02968e-05
7.03386e-05
6.82299e-05
6.82268e-05
6.81221e-05
6.81599e-05
6.56145e-05
6.56115e-05
6.54972e-05
6.55328e-05
6.25231e-05
6.25184e-05
6.23935e-05
6.24294e-05
4.73415e-05
4.67294e-05
4.53994e-05
4.66173e-05
2.83037e-05
2.80021e-05
2.73494e-05
2.78946e-05
1.81912e-05
1.80448e-05
1.77056e-05
1.79572e-05
1.22255e-05
1.21616e-05
1.19853e-05
1.20959e-05
8.50141e-06
8.4869e-06
8.39538e-06
8.43759e-06
6.143e-06
6.13478e-06
6.0908e-06
6.10195e-06
4.58756e-06
4.5828e-06
4.5598e-06
4.56075e-06
3.50684e-06
3.50393e-06
3.48893e-06
3.48871e-06
2.71944e-06
2.71743e-06
2.70633e-06
2.7073e-06
2.12711e-06
2.12544e-06
2.11626e-06
2.11847e-06
1.67605e-06
1.67459e-06
1.66677e-06
1.6701e-06
1.33442e-06
1.33321e-06
1.32665e-06
1.33083e-06
1.07861e-06
1.07761e-06
1.07213e-06
1.07682e-06
8.90124e-07
8.89242e-07
8.84671e-07
8.89581e-07
7.5497e-07
7.54146e-07
7.50324e-07
7.55262e-07
6.6321e-07
6.62412e-07
6.59171e-07
6.64036e-07
6.08274e-07
6.07477e-07
6.04637e-07
6.09416e-07
5.8631e-07
5.85487e-07
5.82847e-07
5.8758e-07
)
;

boundaryField
{
    inlet
    {
        type            cyclic;
    }
    outlet
    {
        type            cyclic;
    }
    fixedWalls-bottom
    {
        type            nutkWallFunction;
        Cmu             0.09;
        kappa           0.41;
        E               9.8;
        value           uniform 0;
    }
    fixedWalls-top
    {
        type            symmetry;
    }
    frontAndBack
    {
        type            empty;
    }
}


// ************************************************************************* //
