/*--------------------------------*- C++ -*----------------------------------*\
  =========                 |
  \\      /  F ield         | OpenFOAM: The Open Source CFD Toolbox
   \\    /   O peration     | Website:  https://openfoam.org
    \\  /    A nd           | Version:  10
     \\/     M anipulation  |
\*---------------------------------------------------------------------------*/
FoamFile
{
    format      ascii;
    class       surfaceScalarField;
    location    "7500";
    object      phi;
}
// * * * * * * * * * * * * * * * * * * * * * * * * * * * * * * * * * * * * * //

dimensions      [0 3 -1 0 0 0 0];

internalField   nonuniform List<scalar> 
696
(
6.38556e-05
-1.2786e-17
6.38556e-05
-8.00649e-20
6.38556e-05
-5.41709e-20
1.19992e-19
0.00019458
-1.29119e-17
0.00019458
-3.78647e-19
0.00019458
-1.34903e-19
5.904e-19
0.000330207
-1.26594e-17
0.000330207
-1.09115e-18
0.000330207
-3.97975e-19
1.4095e-18
0.000470866
-1.2408e-17
0.000470866
-2.22899e-18
0.000470866
-7.76758e-19
2.62006e-18
0.000616689
-1.20614e-17
0.000616689
-3.76721e-18
0.000616689
-1.09669e-18
4.32929e-18
0.00076781
-1.14333e-17
0.00076781
-5.77887e-18
0.00076781
-1.88339e-18
6.4094e-18
0.000924364
-1.05301e-17
0.000924364
-8.4006e-18
0.000924364
-2.63568e-18
8.98732e-18
0.00108649
-9.42409e-18
0.00108649
-1.08849e-17
0.00108649
-4.02601e-18
1.15353e-17
0.00125433
-8.20949e-18
0.00125433
-1.34745e-17
0.00125433
-5.49061e-18
1.44454e-17
0.00142803
-5.90487e-18
0.00142803
-1.64865e-17
0.00142803
-7.87682e-18
1.73182e-17
0.00160772
-4.25258e-18
0.00160772
-1.9812e-17
0.00160772
-9.44492e-18
2.06447e-17
0.00179357
-1.22829e-18
0.00179357
-2.30795e-17
0.00179357
-1.24902e-17
2.4167e-17
0.00198572
2.372e-18
0.00198572
-2.71046e-17
0.00198572
-1.59951e-17
2.82108e-17
0.00218432
5.84575e-18
0.00218432
-3.09363e-17
0.00218432
-1.96621e-17
3.22568e-17
0.00238953
1.10319e-17
0.00238953
-3.41866e-17
0.00238953
-2.51827e-17
3.59252e-17
0.0026015
1.76838e-17
0.0026015
-3.73972e-17
0.0026015
-3.21513e-17
3.92506e-17
0.00282039
2.60029e-17
0.00282039
-4.06756e-17
0.00282039
-4.06608e-17
4.35093e-17
0.00304637
3.56575e-17
0.00304637
-4.46655e-17
0.00304637
-5.08333e-17
4.77535e-17
0.00327959
4.56064e-17
0.00327959
-4.83129e-17
0.00327959
-6.07319e-17
5.11277e-17
0.00352023
5.61006e-17
0.00352023
-5.3062e-17
0.00352023
-7.07649e-17
5.54072e-17
0.00376844
6.82152e-17
0.00376844
-5.87697e-17
0.00376844
-8.29517e-17
6.15304e-17
0.00402439
8.03897e-17
0.00402439
-6.50313e-17
0.00402439
-9.34811e-17
6.62609e-17
0.00428827
9.12707e-17
0.00428827
-7.0635e-17
0.00428827
-1.04563e-16
7.24795e-17
0.00456022
1.02298e-16
0.00456022
-7.538e-17
0.00456022
-1.15704e-16
7.7149e-17
0.00484044
1.1201e-16
0.00484044
-7.99532e-17
0.00484044
-1.25843e-16
8.21902e-17
0.0051291
1.20123e-16
0.0051291
-8.62252e-17
0.0051291
-1.34624e-16
8.81329e-17
0.00542636
1.28123e-16
0.00542636
-9.30004e-17
0.00542636
-1.3933e-16
9.33372e-17
0.00573241
1.32892e-16
0.00573241
-1.02061e-16
0.00573241
-1.43914e-16
1.01555e-16
0.00604743
1.33646e-16
0.00604743
-1.08916e-16
0.00604743
-1.43698e-16
1.07827e-16
0.00637159
1.34879e-16
0.00637159
-1.14857e-16
0.00637159
-1.44836e-16
1.14096e-16
0.00670507
1.34482e-16
0.00670507
-1.19028e-16
0.00670507
-1.45781e-16
1.19899e-16
0.00704804
1.34654e-16
0.00704804
-1.21737e-16
0.00704804
-1.45426e-16
1.22542e-16
0.0074007
1.3421e-16
0.0074007
-1.24969e-16
0.0074007
-1.45336e-16
1.2438e-16
0.00776322
1.33501e-16
0.00776322
-1.26398e-16
0.00776322
-1.43387e-16
1.24874e-16
0.00813577
1.30232e-16
0.00813577
-1.2433e-16
0.00813577
-1.41733e-16
1.24251e-16
0.00851854
1.26865e-16
0.00851854
-1.19323e-16
0.00851854
-1.41782e-16
1.24601e-16
0.0089117
1.22134e-16
0.0089117
-1.191e-16
0.0089117
-1.3699e-16
1.24573e-16
0.00931543
1.18055e-16
0.00931543
-1.14348e-16
0.00931543
-1.37293e-16
1.23317e-16
0.0097299
1.13849e-16
0.0097299
-1.09837e-16
0.0097299
-1.33753e-16
1.20294e-16
0.0101553
1.12236e-16
0.0101553
-1.08432e-16
0.0101553
-1.30635e-16
1.1669e-16
0.0105918
1.07749e-16
0.0105918
-1.02665e-16
0.0105918
-1.26126e-16
1.12275e-16
0.0110395
1.06061e-16
0.0110395
-9.58264e-17
0.0110395
-1.25275e-16
1.0655e-16
0.0114986
1.03104e-16
0.0114986
-9.2108e-17
0.0114986
-1.21389e-16
1.03128e-16
0.0119694
9.8242e-17
0.0119694
-8.81797e-17
0.0119694
-1.17225e-16
9.9079e-17
0.0124518
9.24802e-17
0.0124518
-8.47926e-17
0.0124518
-1.08552e-16
9.3459e-17
0.0129462
8.70299e-17
0.0129462
-7.9924e-17
0.0129462
-1.01684e-16
8.44263e-17
0.0134526
8.44139e-17
0.0134526
-7.30546e-17
0.0134526
-9.90619e-17
7.81397e-17
0.0139712
7.93222e-17
0.0139712
-6.45358e-17
0.0139712
-9.44348e-17
7.29457e-17
0.0145021
7.6224e-17
0.0145021
-5.53172e-17
0.0145021
-8.88285e-17
6.01301e-17
0.0150454
6.97865e-17
0.0150454
-4.27523e-17
0.0150454
-8.27141e-17
4.61722e-17
0.0156013
7.2572e-17
0.0156013
-2.74761e-17
0.0156013
-8.37549e-17
2.99737e-17
0.01617
6.95678e-17
0.01617
-1.66924e-17
0.01617
-8.33504e-17
2.05668e-17
0.0167514
7.46813e-17
0.0167514
8.37908e-19
0.0167514
-9.1067e-17
6.236e-18
0.0173456
7.05623e-17
0.0173456
1.69899e-17
0.0173456
-9.23028e-17
-5.82778e-18
0.0179529
7.12627e-17
0.0179529
2.54771e-17
0.0179529
-9.35181e-17
-1.23809e-17
0.0185732
6.76861e-17
0.0185732
3.45957e-17
0.0185732
-9.11489e-17
-2.61609e-17
0.0192066
6.68015e-17
0.0192066
3.64277e-17
0.0192066
-8.94938e-17
-2.34472e-17
0.0198532
7.05193e-17
0.0198532
3.29551e-17
0.0198532
-8.74142e-17
-2.20481e-17
0.020513
6.89057e-17
0.020513
3.03966e-17
0.020513
-8.57859e-17
-1.97823e-17
0.021186
6.59988e-17
0.021186
2.09773e-17
0.021186
-8.49171e-17
-1.0836e-17
0.0218722
7.19156e-17
0.0218722
1.7051e-17
0.0218722
-8.3887e-17
-1.18289e-17
0.0225716
7.4395e-17
0.0225716
9.52963e-18
0.0225716
-8.41773e-17
-2.88734e-18
0.0232841
8.09505e-17
0.0232841
-1.55548e-18
0.0232841
-9.30514e-17
9.4499e-18
0.0240098
8.71491e-17
0.0240098
-1.39786e-17
0.0240098
-9.53542e-17
1.90315e-17
0.0247485
9.97349e-17
0.0247485
-2.57829e-17
0.0247485
-1.04608e-16
2.61479e-17
0.0255001
9.86692e-17
0.0255001
-3.32603e-17
0.0255001
-1.03669e-16
3.32054e-17
0.0262645
1.01333e-16
0.0262645
-3.64092e-17
0.0262645
-1.01584e-16
2.97926e-17
0.0270416
1.01085e-16
0.0270416
-3.97742e-17
0.0270416
-8.77021e-17
1.89709e-17
0.0278311
1.08739e-16
0.0278311
-2.68588e-17
0.0278311
-8.36419e-17
-4.39136e-18
0.0286329
1.08574e-16
0.0286329
-6.67402e-18
0.0286329
-8.04185e-17
-2.51815e-17
0.0294467
1.09361e-16
0.0294467
-8.53129e-19
0.0294467
-7.62144e-17
-3.7713e-17
0.0302723
1.13752e-16
0.0302723
1.26126e-17
0.0302723
-7.85999e-17
-4.95483e-17
0.0311092
1.20363e-16
0.0311092
2.79704e-17
0.0311092
-8.71993e-17
-6.21397e-17
0.0319572
1.23286e-16
0.0319572
5.18583e-17
0.0319572
-9.68389e-17
-7.96856e-17
0.0328159
1.08144e-16
0.0328159
6.96376e-17
0.0328159
-8.89306e-17
-9.46698e-17
0.0336848
1.01344e-16
0.0336848
9.33819e-17
0.0336848
-8.00748e-17
-1.18433e-16
0.0345635
9.44691e-17
0.0345635
1.09426e-16
0.0345635
-7.2757e-17
-1.2715e-16
0.0354513
8.56752e-17
0.0354513
1.10258e-16
0.0354513
-6.77336e-17
-1.28614e-16
0.0363478
8.44527e-17
0.0363478
1.07734e-16
0.0363478
-6.91234e-17
-1.27772e-16
0.0372522
7.65295e-17
0.0372522
1.21198e-16
0.0372522
-6.96798e-17
-1.36755e-16
0.0381639
7.25531e-17
0.0381639
1.18474e-16
0.0381639
-6.82205e-17
-1.34028e-16
0.039082
7.26149e-17
0.039082
1.12509e-16
0.039082
-6.31068e-17
-1.31776e-16
0.0400059
8.00876e-17
0.0400059
1.00653e-16
0.0400059
-6.975e-17
-1.18004e-16
0.0409345
8.75897e-17
0.0409345
8.94029e-17
0.0409345
-7.59012e-17
-1.01315e-16
0.0418668
1.00324e-16
0.0418668
8.71699e-17
0.0418668
-7.935e-17
-1.05736e-16
0.0428019
9.65978e-17
0.0428019
9.13504e-17
0.0428019
-6.79451e-17
-1.24947e-16
0.0437386
7.64071e-17
0.0437386
1.01924e-16
0.0437386
-6.33704e-17
-1.14855e-16
0.0446757
6.92097e-17
0.0446757
1.1336e-16
0.0446757
-5.29714e-17
-1.29274e-16
0.0456118
5.33208e-17
0.0456118
1.11361e-16
0.0456118
-4.54075e-17
-1.19424e-16
0.0465455
3.20465e-17
0.0465455
1.10246e-16
0.0465455
-3.1603e-17
-1.14443e-16
0.0474754
3.03503e-17
0.0474754
9.61669e-17
0.0474754
-2.81903e-17
-9.55922e-17
0.0483997
2.47639e-17
0.0483997
7.5551e-17
0.0483997
-2.60903e-17
-7.44806e-17
0.0493168
2.81639e-17
0.0493168
6.14384e-17
0.0493168
-2.35522e-17
-5.6313e-17
0.0502248
2.92704e-17
0.0502248
3.42881e-17
0.0502248
-2.86613e-17
-3.03909e-17
0.0511217
2.59852e-17
0.0511217
3.50099e-17
0.0511217
-3.67025e-17
-2.19276e-17
0.0520054
1.568e-17
0.0520054
2.49726e-17
0.0520054
-1.45442e-17
-1.78389e-17
0.0528736
1.12792e-17
0.0528736
2.11996e-17
0.0528736
-1.37035e-17
-2.26177e-17
0.053724
1.44682e-17
0.053724
1.33205e-17
0.053724
-1.09997e-17
-1.26181e-17
0.0545539
1.64581e-17
0.0545539
1.47099e-17
0.0545539
-1.21082e-17
-1.06085e-17
0.0553606
0.0553606
0.0553606
)
;

boundaryField
{
    inlet
    {
        type            cyclic;
        value           nonuniform List<scalar> 
100
(
-0.0553606
-0.0545539
-0.053724
-0.0528736
-0.0520054
-0.0511217
-0.0502248
-0.0493168
-0.0483997
-0.0474754
-0.0465455
-0.0456118
-0.0446757
-0.0437386
-0.0428019
-0.0418668
-0.0409345
-0.0400059
-0.039082
-0.0381639
-0.0372522
-0.0363478
-0.0354513
-0.0345635
-0.0336848
-0.0328159
-0.0319572
-0.0311092
-0.0302723
-0.0294467
-0.0286329
-0.0278311
-0.0270416
-0.0262645
-0.0255001
-0.0247485
-0.0240098
-0.0232841
-0.0225716
-0.0218722
-0.021186
-0.020513
-0.0198532
-0.0192066
-0.0185732
-0.0179529
-0.0173456
-0.0167514
-0.01617
-0.0156013
-0.0150454
-0.0145021
-0.0139712
-0.0134526
-0.0129462
-0.0124518
-0.0119694
-0.0114986
-0.0110395
-0.0105918
-0.0101553
-0.0097299
-0.00931543
-0.0089117
-0.00851854
-0.00813577
-0.00776322
-0.0074007
-0.00704804
-0.00670507
-0.00637159
-0.00604743
-0.00573241
-0.00542636
-0.0051291
-0.00484044
-0.00456022
-0.00428827
-0.00402439
-0.00376844
-0.00352023
-0.00327959
-0.00304637
-0.00282039
-0.0026015
-0.00238953
-0.00218432
-0.00198572
-0.00179357
-0.00160772
-0.00142803
-0.00125433
-0.00108649
-0.000924364
-0.00076781
-0.000616689
-0.000470866
-0.000330207
-0.00019458
-6.38556e-05
)
;
    }
    outlet
    {
        type            cyclic;
        value           nonuniform List<scalar> 
100
(
0.0553606
0.0545539
0.053724
0.0528736
0.0520054
0.0511217
0.0502248
0.0493168
0.0483997
0.0474754
0.0465455
0.0456118
0.0446757
0.0437386
0.0428019
0.0418668
0.0409345
0.0400059
0.039082
0.0381639
0.0372522
0.0363478
0.0354513
0.0345635
0.0336848
0.0328159
0.0319572
0.0311092
0.0302723
0.0294467
0.0286329
0.0278311
0.0270416
0.0262645
0.0255001
0.0247485
0.0240098
0.0232841
0.0225716
0.0218722
0.021186
0.020513
0.0198532
0.0192066
0.0185732
0.0179529
0.0173456
0.0167514
0.01617
0.0156013
0.0150454
0.0145021
0.0139712
0.0134526
0.0129462
0.0124518
0.0119694
0.0114986
0.0110395
0.0105918
0.0101553
0.0097299
0.00931543
0.0089117
0.00851854
0.00813577
0.00776322
0.0074007
0.00704804
0.00670507
0.00637159
0.00604743
0.00573241
0.00542636
0.0051291
0.00484044
0.00456022
0.00428827
0.00402439
0.00376844
0.00352023
0.00327959
0.00304637
0.00282039
0.0026015
0.00238953
0.00218432
0.00198572
0.00179357
0.00160772
0.00142803
0.00125433
0.00108649
0.000924364
0.00076781
0.000616689
0.000470866
0.000330207
0.00019458
6.38556e-05
)
;
    }
    fixedWalls-bottom
    {
        type            calculated;
        value           uniform 0;
    }
    fixedWalls-top
    {
        type            symmetry;
        value           uniform 0;
    }
    frontAndBack
    {
        type            empty;
        value           nonuniform List<scalar> 0();
    }
}


// ************************************************************************* //
