/*--------------------------------*- C++ -*----------------------------------*\
  =========                 |
  \\      /  F ield         | OpenFOAM: The Open Source CFD Toolbox
   \\    /   O peration     | Website:  https://openfoam.org
    \\  /    A nd           | Version:  10
     \\/     M anipulation  |
\*---------------------------------------------------------------------------*/
FoamFile
{
    format      ascii;
    class       volSymmTensorField;
    location    "7500";
    object      R;
}
// * * * * * * * * * * * * * * * * * * * * * * * * * * * * * * * * * * * * * //

dimensions      [0 2 -2 0 0 0 0];

internalField   nonuniform List<symmTensor> 
400
(
(1.4803e-16 -1.35147e-20 -0 1.4803e-16 -0 1.4803e-16)
(1.4803e-16 -1.35147e-20 -0 1.4803e-16 -0 1.4803e-16)
(1.4803e-16 -1.35147e-20 -0 1.4803e-16 -0 1.4803e-16)
(1.4803e-16 -1.35147e-20 -0 1.4803e-16 -0 1.4803e-16)
(1.4803e-16 -8.20292e-20 -0 1.4803e-16 -0 1.4803e-16)
(1.4803e-16 -8.20292e-20 -0 1.4803e-16 -0 1.4803e-16)
(1.4803e-16 -8.20292e-20 -0 1.4803e-16 -0 1.4803e-16)
(1.4803e-16 -8.20292e-20 -0 1.4803e-16 -0 1.4803e-16)
(1.4803e-16 -2.47572e-19 -0 1.4803e-16 -0 1.4803e-16)
(1.4803e-16 -2.47572e-19 -0 1.4803e-16 -0 1.4803e-16)
(1.4803e-16 -2.47572e-19 -0 1.4803e-16 -0 1.4803e-16)
(1.4803e-16 -2.47572e-19 -0 1.4803e-16 -0 1.4803e-16)
(1.4803e-16 -5.29753e-19 -0 1.4803e-16 -0 1.4803e-16)
(1.4803e-16 -5.29754e-19 -0 1.4803e-16 -0 1.4803e-16)
(1.4803e-16 -5.29754e-19 -0 1.4803e-16 -0 1.4803e-16)
(1.4803e-16 -5.29754e-19 -0 1.4803e-16 -0 1.4803e-16)
(1.4803e-16 -9.35348e-19 -0 1.4803e-16 -0 1.4803e-16)
(1.4803e-16 -9.35352e-19 -0 1.4803e-16 -0 1.4803e-16)
(1.4803e-16 -9.35357e-19 -0 1.4803e-16 -0 1.4803e-16)
(1.4803e-16 -9.35357e-19 -0 1.4803e-16 -0 1.4803e-16)
(1.4803e-16 -1.46312e-18 -0 1.4803e-16 -0 1.4803e-16)
(1.4803e-16 -1.46314e-18 -0 1.4803e-16 -0 1.4803e-16)
(1.4803e-16 -1.46316e-18 -0 1.4803e-16 -0 1.4803e-16)
(1.4803e-16 -1.46316e-18 -0 1.4803e-16 -0 1.4803e-16)
(1.4803e-16 -2.10805e-18 -0 1.4803e-16 -0 1.4803e-16)
(1.4803e-16 -2.10811e-18 -0 1.4803e-16 -0 1.4803e-16)
(1.4803e-16 -2.10815e-18 -0 1.4803e-16 -0 1.4803e-16)
(1.4803e-16 -2.10815e-18 -0 1.4803e-16 -0 1.4803e-16)
(1.4803e-16 -2.86721e-18 -0 1.4803e-16 -0 1.4803e-16)
(1.4803e-16 -2.86735e-18 -0 1.4803e-16 -0 1.4803e-16)
(1.4803e-16 -2.8674e-18 -0 1.4803e-16 -0 1.4803e-16)
(1.4803e-16 -2.8674e-18 -0 1.4803e-16 -0 1.4803e-16)
(1.4803e-16 -3.7409e-18 -0 1.4803e-16 -0 1.4803e-16)
(1.4803e-16 -3.74113e-18 -0 1.4803e-16 -0 1.4803e-16)
(1.4803e-16 -3.74119e-18 -0 1.4803e-16 -0 1.4803e-16)
(1.4803e-16 -3.74119e-18 -0 1.4803e-16 -0 1.4803e-16)
(1.4803e-16 -4.73208e-18 -0 1.4803e-16 -0 1.4803e-16)
(1.4803e-16 -4.73241e-18 -0 1.4803e-16 -0 1.4803e-16)
(1.4803e-16 -4.73248e-18 -0 1.4803e-16 -0 1.4803e-16)
(1.4803e-16 -4.73247e-18 -0 1.4803e-16 -0 1.4803e-16)
(1.4803e-16 -5.84562e-18 -0 1.4803e-16 -0 1.4803e-16)
(1.4803e-16 -5.84606e-18 -0 1.4803e-16 -0 1.4803e-16)
(1.4803e-16 -5.84612e-18 -0 1.4803e-16 -0 1.4803e-16)
(1.4803e-16 -5.8461e-18 -0 1.4803e-16 -0 1.4803e-16)
(1.4803e-16 -7.08557e-18 -0 1.4803e-16 -0 1.4803e-16)
(1.4803e-16 -7.08614e-18 -0 1.4803e-16 -0 1.4803e-16)
(1.4803e-16 -7.08621e-18 -0 1.4803e-16 -0 1.4803e-16)
(1.4803e-16 -7.08618e-18 -0 1.4803e-16 -0 1.4803e-16)
(1.4803e-16 -8.45194e-18 -0 1.4803e-16 -0 1.4803e-16)
(1.4803e-16 -8.4527e-18 -0 1.4803e-16 -0 1.4803e-16)
(1.4803e-16 -8.45281e-18 -0 1.4803e-16 -0 1.4803e-16)
(1.4803e-16 -8.45275e-18 -0 1.4803e-16 -0 1.4803e-16)
(1.4803e-16 -9.94063e-18 -0 1.4803e-16 -0 1.4803e-16)
(1.4803e-16 -9.94167e-18 -0 1.4803e-16 -0 1.4803e-16)
(1.4803e-16 -9.94187e-18 -0 1.4803e-16 -0 1.4803e-16)
(1.4803e-16 -9.94177e-18 -0 1.4803e-16 -0 1.4803e-16)
(1.4803e-16 -1.15446e-17 -0 1.4803e-16 -0 1.4803e-16)
(1.4803e-16 -1.1546e-17 -0 1.4803e-16 -0 1.4803e-16)
(1.4803e-16 -1.15464e-17 -0 1.4803e-16 -0 1.4803e-16)
(1.4803e-16 -1.15463e-17 -0 1.4803e-16 -0 1.4803e-16)
(1.4803e-16 -1.32544e-17 -0 1.4803e-16 -0 1.4803e-16)
(1.4803e-16 -1.32564e-17 -0 1.4803e-16 -0 1.4803e-16)
(1.4803e-16 -1.32571e-17 -0 1.4803e-16 -0 1.4803e-16)
(1.4803e-16 -1.32569e-17 -0 1.4803e-16 -0 1.4803e-16)
(1.4803e-16 -1.50581e-17 -0 1.4803e-16 -0 1.4803e-16)
(1.4803e-16 -1.5061e-17 -0 1.4803e-16 -0 1.4803e-16)
(1.4803e-16 -1.50621e-17 -0 1.4803e-16 -0 1.4803e-16)
(1.4803e-16 -1.50618e-17 -0 1.4803e-16 -0 1.4803e-16)
(1.4803e-16 -1.69418e-17 -0 1.4803e-16 -0 1.4803e-16)
(1.4803e-16 -1.6946e-17 -0 1.4803e-16 -0 1.4803e-16)
(1.4803e-16 -1.69477e-17 -0 1.4803e-16 -0 1.4803e-16)
(1.4803e-16 -1.69473e-17 -0 1.4803e-16 -0 1.4803e-16)
(1.4803e-16 -1.88898e-17 -0 1.4803e-16 -0 1.4803e-16)
(1.4803e-16 -1.88956e-17 -0 1.4803e-16 -0 1.4803e-16)
(1.4803e-16 -1.88982e-17 -0 1.4803e-16 -0 1.4803e-16)
(1.4803e-16 -1.88976e-17 -0 1.4803e-16 -0 1.4803e-16)
(1.4803e-16 -2.0885e-17 -0 1.4803e-16 -0 1.4803e-16)
(1.4803e-16 -2.08929e-17 -0 1.4803e-16 -0 1.4803e-16)
(1.4803e-16 -2.08967e-17 -0 1.4803e-16 -0 1.4803e-16)
(1.4803e-16 -2.08959e-17 -0 1.4803e-16 -0 1.4803e-16)
(1.4803e-16 -2.29096e-17 -0 1.4803e-16 -0 1.4803e-16)
(1.4803e-16 -2.292e-17 -0 1.4803e-16 -0 1.4803e-16)
(1.4803e-16 -2.29254e-17 -0 1.4803e-16 -0 1.4803e-16)
(1.4803e-16 -2.29244e-17 -0 1.4803e-16 -0 1.4803e-16)
(1.4803e-16 -2.49459e-17 -0 1.4803e-16 -0 1.4803e-16)
(1.4803e-16 -2.49592e-17 -0 1.4803e-16 -0 1.4803e-16)
(1.4803e-16 -2.49666e-17 -0 1.4803e-16 -0 1.4803e-16)
(1.4803e-16 -2.49655e-17 -0 1.4803e-16 -0 1.4803e-16)
(1.4803e-16 -2.69767e-17 -0 1.4803e-16 -0 1.4803e-16)
(1.4803e-16 -2.69934e-17 -0 1.4803e-16 -0 1.4803e-16)
(1.4803e-16 -2.70032e-17 -0 1.4803e-16 -0 1.4803e-16)
(1.4803e-16 -2.70021e-17 -0 1.4803e-16 -0 1.4803e-16)
(1.4803e-16 -2.89861e-17 -0 1.4803e-16 -0 1.4803e-16)
(1.4803e-16 -2.90064e-17 -0 1.4803e-16 -0 1.4803e-16)
(1.4803e-16 -2.90193e-17 -0 1.4803e-16 -0 1.4803e-16)
(1.4803e-16 -2.90183e-17 -0 1.4803e-16 -0 1.4803e-16)
(1.4803e-16 -3.09597e-17 -0 1.4803e-16 -0 1.4803e-16)
(1.4803e-16 -3.09837e-17 -0 1.4803e-16 -0 1.4803e-16)
(1.4803e-16 -3.10003e-17 -0 1.4803e-16 -0 1.4803e-16)
(1.4803e-16 -3.09998e-17 -0 1.4803e-16 -0 1.4803e-16)
(1.4803e-16 -3.28851e-17 -0 1.4803e-16 -0 1.4803e-16)
(1.4803e-16 -3.29128e-17 -0 1.4803e-16 -0 1.4803e-16)
(1.4803e-16 -3.29337e-17 -0 1.4803e-16 -0 1.4803e-16)
(1.4803e-16 -3.29343e-17 -0 1.4803e-16 -0 1.4803e-16)
(1.4803e-16 -3.47519e-17 -0 1.4803e-16 -0 1.4803e-16)
(1.4803e-16 -3.47831e-17 -0 1.4803e-16 -0 1.4803e-16)
(1.4803e-16 -3.48088e-17 -0 1.4803e-16 -0 1.4803e-16)
(1.4803e-16 -3.48109e-17 -0 1.4803e-16 -0 1.4803e-16)
(1.4803e-16 -3.65516e-17 -0 1.4803e-16 -0 1.4803e-16)
(1.4803e-16 -3.65857e-17 -0 1.4803e-16 -0 1.4803e-16)
(1.4803e-16 -3.66167e-17 -0 1.4803e-16 -0 1.4803e-16)
(1.4803e-16 -3.66211e-17 -0 1.4803e-16 -0 1.4803e-16)
(1.4803e-16 -3.82776e-17 -0 1.4803e-16 -0 1.4803e-16)
(1.4803e-16 -3.83138e-17 -0 1.4803e-16 -0 1.4803e-16)
(1.4803e-16 -3.83503e-17 -0 1.4803e-16 -0 1.4803e-16)
(1.4803e-16 -3.83581e-17 -0 1.4803e-16 -0 1.4803e-16)
(1.4803e-16 -3.9925e-17 -0 1.4803e-16 -0 1.4803e-16)
(1.4803e-16 -3.99623e-17 -0 1.4803e-16 -0 1.4803e-16)
(1.4803e-16 -4.00041e-17 -0 1.4803e-16 -0 1.4803e-16)
(1.4803e-16 -4.00168e-17 -0 1.4803e-16 -0 1.4803e-16)
(1.4803e-16 -4.14903e-17 -0 1.4803e-16 -0 1.4803e-16)
(1.4803e-16 -4.15276e-17 -0 1.4803e-16 -0 1.4803e-16)
(1.4803e-16 -4.15744e-17 -0 1.4803e-16 -0 1.4803e-16)
(1.4803e-16 -4.15938e-17 -0 1.4803e-16 -0 1.4803e-16)
(1.4803e-16 -4.29713e-17 -0 1.4803e-16 -0 1.4803e-16)
(1.4803e-16 -4.30074e-17 -0 1.4803e-16 -0 1.4803e-16)
(1.4803e-16 -4.30586e-17 -0 1.4803e-16 -0 1.4803e-16)
(1.4803e-16 -4.30865e-17 -0 1.4803e-16 -0 1.4803e-16)
(1.4803e-16 -4.43667e-17 -0 1.4803e-16 -0 1.4803e-16)
(1.4803e-16 -4.44008e-17 -0 1.4803e-16 -0 1.4803e-16)
(1.4803e-16 -4.44556e-17 -0 1.4803e-16 -0 1.4803e-16)
(1.4803e-16 -4.44936e-17 -0 1.4803e-16 -0 1.4803e-16)
(1.4803e-16 -4.56762e-17 -0 1.4803e-16 -0 1.4803e-16)
(1.4803e-16 -4.57078e-17 -0 1.4803e-16 -0 1.4803e-16)
(1.4803e-16 -4.5765e-17 -0 1.4803e-16 -0 1.4803e-16)
(1.4803e-16 -4.58148e-17 -0 1.4803e-16 -0 1.4803e-16)
(1.4803e-16 -4.69001e-17 -0 1.4803e-16 -0 1.4803e-16)
(1.4803e-16 -4.6929e-17 -0 1.4803e-16 -0 1.4803e-16)
(1.4803e-16 -4.69874e-17 -0 1.4803e-16 -0 1.4803e-16)
(1.4803e-16 -4.70504e-17 -0 1.4803e-16 -0 1.4803e-16)
(1.4803e-16 -4.80394e-17 -0 1.4803e-16 -0 1.4803e-16)
(1.4803e-16 -4.8066e-17 -0 1.4803e-16 -0 1.4803e-16)
(1.4803e-16 -4.8124e-17 -0 1.4803e-16 -0 1.4803e-16)
(1.4803e-16 -4.82012e-17 -0 1.4803e-16 -0 1.4803e-16)
(1.4803e-16 -4.90958e-17 -0 1.4803e-16 -0 1.4803e-16)
(1.4803e-16 -4.91202e-17 -0 1.4803e-16 -0 1.4803e-16)
(1.4803e-16 -4.91769e-17 -0 1.4803e-16 -0 1.4803e-16)
(1.4803e-16 -4.92689e-17 -0 1.4803e-16 -0 1.4803e-16)
(1.4803e-16 -5.00713e-17 -0 1.4803e-16 -0 1.4803e-16)
(1.4803e-16 -5.00939e-17 -0 1.4803e-16 -0 1.4803e-16)
(1.4803e-16 -5.01492e-17 -0 1.4803e-16 -0 1.4803e-16)
(1.4803e-16 -5.02555e-17 -0 1.4803e-16 -0 1.4803e-16)
(1.4803e-16 -5.09687e-17 -0 1.4803e-16 -0 1.4803e-16)
(1.4803e-16 -5.09897e-17 -0 1.4803e-16 -0 1.4803e-16)
(1.4803e-16 -5.10442e-17 -0 1.4803e-16 -0 1.4803e-16)
(1.4803e-16 -5.11635e-17 -0 1.4803e-16 -0 1.4803e-16)
(1.4803e-16 -5.17911e-17 -0 1.4803e-16 -0 1.4803e-16)
(1.4803e-16 -5.18109e-17 -0 1.4803e-16 -0 1.4803e-16)
(1.4803e-16 -5.18652e-17 -0 1.4803e-16 -0 1.4803e-16)
(1.4803e-16 -5.19962e-17 -0 1.4803e-16 -0 1.4803e-16)
(1.4803e-16 -5.25423e-17 -0 1.4803e-16 -0 1.4803e-16)
(1.4803e-16 -5.25612e-17 -0 1.4803e-16 -0 1.4803e-16)
(1.4803e-16 -5.26155e-17 -0 1.4803e-16 -0 1.4803e-16)
(1.4803e-16 -5.27576e-17 -0 1.4803e-16 -0 1.4803e-16)
(1.4803e-16 -5.32265e-17 -0 1.4803e-16 -0 1.4803e-16)
(1.4803e-16 -5.32447e-17 -0 1.4803e-16 -0 1.4803e-16)
(1.4803e-16 -5.32994e-17 -0 1.4803e-16 -0 1.4803e-16)
(1.4803e-16 -5.34522e-17 -0 1.4803e-16 -0 1.4803e-16)
(1.4803e-16 -5.38487e-17 -0 1.4803e-16 -0 1.4803e-16)
(1.4803e-16 -5.38663e-17 -0 1.4803e-16 -0 1.4803e-16)
(1.4803e-16 -5.39217e-17 -0 1.4803e-16 -0 1.4803e-16)
(1.4803e-16 -5.40848e-17 -0 1.4803e-16 -0 1.4803e-16)
(1.4803e-16 -5.44144e-17 -0 1.4803e-16 -0 1.4803e-16)
(1.4803e-16 -5.44317e-17 -0 1.4803e-16 -0 1.4803e-16)
(1.4803e-16 -5.4488e-17 -0 1.4803e-16 -0 1.4803e-16)
(1.4803e-16 -5.46613e-17 -0 1.4803e-16 -0 1.4803e-16)
(1.4803e-16 -5.49305e-17 -0 1.4803e-16 -0 1.4803e-16)
(1.4803e-16 -5.49476e-17 -0 1.4803e-16 -0 1.4803e-16)
(1.4803e-16 -5.50052e-17 -0 1.4803e-16 -0 1.4803e-16)
(1.4803e-16 -5.51885e-17 -0 1.4803e-16 -0 1.4803e-16)
(1.4803e-16 -5.54051e-17 -0 1.4803e-16 -0 1.4803e-16)
(1.4803e-16 -5.5422e-17 -0 1.4803e-16 -0 1.4803e-16)
(1.4803e-16 -5.54813e-17 -0 1.4803e-16 -0 1.4803e-16)
(1.4803e-16 -5.56746e-17 -0 1.4803e-16 -0 1.4803e-16)
(1.4803e-16 -5.58466e-17 -0 1.4803e-16 -0 1.4803e-16)
(1.4803e-16 -5.58637e-17 -0 1.4803e-16 -0 1.4803e-16)
(1.4803e-16 -5.59251e-17 -0 1.4803e-16 -0 1.4803e-16)
(1.4803e-16 -5.61285e-17 -0 1.4803e-16 -0 1.4803e-16)
(1.4803e-16 -5.62632e-17 -0 1.4803e-16 -0 1.4803e-16)
(1.4803e-16 -5.62805e-17 -0 1.4803e-16 -0 1.4803e-16)
(1.4803e-16 -5.63444e-17 -0 1.4803e-16 -0 1.4803e-16)
(1.4803e-16 -5.65581e-17 -0 1.4803e-16 -0 1.4803e-16)
(1.4803e-16 -5.66612e-17 -0 1.4803e-16 -0 1.4803e-16)
(1.4803e-16 -5.66786e-17 -0 1.4803e-16 -0 1.4803e-16)
(1.4803e-16 -5.67454e-17 -0 1.4803e-16 -0 1.4803e-16)
(1.4803e-16 -5.697e-17 -0 1.4803e-16 -0 1.4803e-16)
(1.4803e-16 -5.70457e-17 -0 1.4803e-16 -0 1.4803e-16)
(1.4803e-16 -5.70631e-17 -0 1.4803e-16 -0 1.4803e-16)
(1.4803e-16 -5.71333e-17 -0 1.4803e-16 -0 1.4803e-16)
(1.4803e-16 -5.73693e-17 -0 1.4803e-16 -0 1.4803e-16)
(1.4803e-16 -5.74222e-17 -0 1.4803e-16 -0 1.4803e-16)
(1.4803e-16 -5.7439e-17 -0 1.4803e-16 -0 1.4803e-16)
(1.4803e-16 -5.75138e-17 -0 1.4803e-16 -0 1.4803e-16)
(1.4803e-16 -5.77616e-17 -0 1.4803e-16 -0 1.4803e-16)
(1.4803e-16 -5.77967e-17 -0 1.4803e-16 -0 1.4803e-16)
(1.4803e-16 -5.78121e-17 -0 1.4803e-16 -0 1.4803e-16)
(1.4803e-16 -5.78923e-17 -0 1.4803e-16 -0 1.4803e-16)
(1.4803e-16 -5.81525e-17 -0 1.4803e-16 -0 1.4803e-16)
(1.4803e-16 -5.81729e-17 -0 1.4803e-16 -0 1.4803e-16)
(1.4803e-16 -5.81864e-17 -0 1.4803e-16 -0 1.4803e-16)
(1.4803e-16 -5.82721e-17 -0 1.4803e-16 -0 1.4803e-16)
(1.4803e-16 -5.85458e-17 -0 1.4803e-16 -0 1.4803e-16)
(1.4803e-16 -5.85494e-17 -0 1.4803e-16 -0 1.4803e-16)
(1.4803e-16 -5.85613e-17 -0 1.4803e-16 -0 1.4803e-16)
(1.4803e-16 -5.86516e-17 -0 1.4803e-16 -0 1.4803e-16)
(1.4803e-16 -5.89402e-17 -0 1.4803e-16 -0 1.4803e-16)
(1.4803e-16 -5.89195e-17 -0 1.4803e-16 -0 1.4803e-16)
(1.4803e-16 -5.89282e-17 -0 1.4803e-16 -0 1.4803e-16)
(1.4803e-16 -5.9026e-17 -0 1.4803e-16 -0 1.4803e-16)
(1.4803e-16 -5.93291e-17 -0 1.4803e-16 -0 1.4803e-16)
(1.4803e-16 -5.92732e-17 -0 1.4803e-16 -0 1.4803e-16)
(1.4803e-16 -5.9277e-17 -0 1.4803e-16 -0 1.4803e-16)
(1.4803e-16 -5.93866e-17 -0 1.4803e-16 -0 1.4803e-16)
(1.4803e-16 -5.97028e-17 -0 1.4803e-16 -0 1.4803e-16)
(1.4803e-16 -5.96016e-17 -0 1.4803e-16 -0 1.4803e-16)
(1.4803e-16 -5.96064e-17 -0 1.4803e-16 -0 1.4803e-16)
(1.4803e-16 -5.97219e-17 -0 1.4803e-16 -0 1.4803e-16)
(1.4803e-16 -6.00518e-17 -0 1.4803e-16 -0 1.4803e-16)
(1.4803e-16 -5.99031e-17 -0 1.4803e-16 -0 1.4803e-16)
(1.4803e-16 -5.99071e-17 -0 1.4803e-16 -0 1.4803e-16)
(1.4803e-16 -6.00228e-17 -0 1.4803e-16 -0 1.4803e-16)
(1.4803e-16 -6.03686e-17 -0 1.4803e-16 -0 1.4803e-16)
(1.4803e-16 -6.01615e-17 -0 1.4803e-16 -0 1.4803e-16)
(1.4803e-16 -6.0162e-17 -0 1.4803e-16 -0 1.4803e-16)
(1.4803e-16 -6.02908e-17 -0 1.4803e-16 -0 1.4803e-16)
(1.4803e-16 -6.06465e-17 -0 1.4803e-16 -0 1.4803e-16)
(1.4803e-16 -6.03742e-17 -0 1.4803e-16 -0 1.4803e-16)
(1.4803e-16 -6.03815e-17 -0 1.4803e-16 -0 1.4803e-16)
(1.4803e-16 -6.05145e-17 -0 1.4803e-16 -0 1.4803e-16)
(1.4803e-16 -6.08824e-17 -0 1.4803e-16 -0 1.4803e-16)
(1.4803e-16 -6.05495e-17 -0 1.4803e-16 -0 1.4803e-16)
(1.4803e-16 -6.05553e-17 -0 1.4803e-16 -0 1.4803e-16)
(1.4803e-16 -6.06911e-17 -0 1.4803e-16 -0 1.4803e-16)
(1.4803e-16 -6.10747e-17 -0 1.4803e-16 -0 1.4803e-16)
(1.4803e-16 -6.06854e-17 -0 1.4803e-16 -0 1.4803e-16)
(1.4803e-16 -6.06852e-17 -0 1.4803e-16 -0 1.4803e-16)
(1.4803e-16 -6.08212e-17 -0 1.4803e-16 -0 1.4803e-16)
(1.4803e-16 -6.1221e-17 -0 1.4803e-16 -0 1.4803e-16)
(1.4803e-16 -6.07798e-17 -0 1.4803e-16 -0 1.4803e-16)
(1.4803e-16 -6.07744e-17 -0 1.4803e-16 -0 1.4803e-16)
(1.4803e-16 -6.09036e-17 -0 1.4803e-16 -0 1.4803e-16)
(1.4803e-16 -6.13201e-17 -0 1.4803e-16 -0 1.4803e-16)
(1.4803e-16 -6.08206e-17 -0 1.4803e-16 -0 1.4803e-16)
(1.4803e-16 -6.08032e-17 -0 1.4803e-16 -0 1.4803e-16)
(1.4803e-16 -6.09473e-17 -0 1.4803e-16 -0 1.4803e-16)
(1.4803e-16 -6.13704e-17 -0 1.4803e-16 -0 1.4803e-16)
(1.4803e-16 -6.08088e-17 -0 1.4803e-16 -0 1.4803e-16)
(1.4803e-16 -6.0785e-17 -0 1.4803e-16 -0 1.4803e-16)
(1.4803e-16 -6.09451e-17 -0 1.4803e-16 -0 1.4803e-16)
(1.4803e-16 -6.13721e-17 -0 1.4803e-16 -0 1.4803e-16)
(1.4803e-16 -6.07435e-17 -0 1.4803e-16 -0 1.4803e-16)
(1.4803e-16 -6.07286e-17 -0 1.4803e-16 -0 1.4803e-16)
(1.4803e-16 -6.08936e-17 -0 1.4803e-16 -0 1.4803e-16)
(1.4803e-16 -6.13248e-17 -0 1.4803e-16 -0 1.4803e-16)
(1.4803e-16 -6.06255e-17 -0 1.4803e-16 -0 1.4803e-16)
(1.4803e-16 -6.06275e-17 -0 1.4803e-16 -0 1.4803e-16)
(1.4803e-16 -6.07927e-17 -0 1.4803e-16 -0 1.4803e-16)
(1.4803e-16 -6.12282e-17 -0 1.4803e-16 -0 1.4803e-16)
(1.4803e-16 -6.04687e-17 -0 1.4803e-16 -0 1.4803e-16)
(1.4803e-16 -6.04753e-17 -0 1.4803e-16 -0 1.4803e-16)
(1.4803e-16 -6.06413e-17 -0 1.4803e-16 -0 1.4803e-16)
(1.4803e-16 -6.10832e-17 -0 1.4803e-16 -0 1.4803e-16)
(1.4803e-16 -6.02682e-17 -0 1.4803e-16 -0 1.4803e-16)
(1.4803e-16 -6.02727e-17 -0 1.4803e-16 -0 1.4803e-16)
(1.4803e-16 -6.04396e-17 -0 1.4803e-16 -0 1.4803e-16)
(1.4803e-16 -6.08876e-17 -0 1.4803e-16 -0 1.4803e-16)
(1.4803e-16 -6.00194e-17 -0 1.4803e-16 -0 1.4803e-16)
(1.4803e-16 -6.00184e-17 -0 1.4803e-16 -0 1.4803e-16)
(1.4803e-16 -6.01864e-17 -0 1.4803e-16 -0 1.4803e-16)
(1.4803e-16 -6.06399e-17 -0 1.4803e-16 -0 1.4803e-16)
(1.4803e-16 -5.97174e-17 -0 1.4803e-16 -0 1.4803e-16)
(1.4803e-16 -5.97109e-17 -0 1.4803e-16 -0 1.4803e-16)
(1.4803e-16 -5.988e-17 -0 1.4803e-16 -0 1.4803e-16)
(1.4803e-16 -6.03383e-17 -0 1.4803e-16 -0 1.4803e-16)
(1.4803e-16 -5.93587e-17 -0 1.4803e-16 -0 1.4803e-16)
(1.4803e-16 -5.93486e-17 -0 1.4803e-16 -0 1.4803e-16)
(1.4803e-16 -5.95192e-17 -0 1.4803e-16 -0 1.4803e-16)
(1.4803e-16 -5.99802e-17 -0 1.4803e-16 -0 1.4803e-16)
(1.4803e-16 -5.894e-17 -0 1.4803e-16 -0 1.4803e-16)
(1.4803e-16 -5.89294e-17 -0 1.4803e-16 -0 1.4803e-16)
(1.4803e-16 -5.91014e-17 -0 1.4803e-16 -0 1.4803e-16)
(1.4803e-16 -5.95632e-17 -0 1.4803e-16 -0 1.4803e-16)
(1.4803e-16 -5.84578e-17 -0 1.4803e-16 -0 1.4803e-16)
(1.4803e-16 -5.8451e-17 -0 1.4803e-16 -0 1.4803e-16)
(1.4803e-16 -5.86221e-17 -0 1.4803e-16 -0 1.4803e-16)
(1.4803e-16 -5.9085e-17 -0 1.4803e-16 -0 1.4803e-16)
(1.4803e-16 -5.7907e-17 -0 1.4803e-16 -0 1.4803e-16)
(1.4803e-16 -5.7913e-17 -0 1.4803e-16 -0 1.4803e-16)
(1.4803e-16 -5.80735e-17 -0 1.4803e-16 -0 1.4803e-16)
(1.4803e-16 -5.8543e-17 -0 1.4803e-16 -0 1.4803e-16)
(1.4803e-16 -5.72774e-17 -0 1.4803e-16 -0 1.4803e-16)
(1.4803e-16 -5.73212e-17 -0 1.4803e-16 -0 1.4803e-16)
(1.4803e-16 -5.74395e-17 -0 1.4803e-16 -0 1.4803e-16)
(1.4803e-16 -5.79344e-17 -0 1.4803e-16 -0 1.4803e-16)
(1.4803e-16 -5.65425e-17 -0 1.4803e-16 -0 1.4803e-16)
(1.4803e-16 -5.67022e-17 -0 1.4803e-16 -0 1.4803e-16)
(1.4803e-16 -5.67046e-17 -0 1.4803e-16 -0 1.4803e-16)
(1.4803e-16 -5.72527e-17 -0 1.4803e-16 -0 1.4803e-16)
(1.4803e-16 -5.57793e-17 -0 1.4803e-16 -0 1.4803e-16)
(1.4803e-16 -5.59364e-17 -0 1.4803e-16 -0 1.4803e-16)
(1.4803e-16 -5.59402e-17 -0 1.4803e-16 -0 1.4803e-16)
(1.4803e-16 -5.64764e-17 -0 1.4803e-16 -0 1.4803e-16)
(1.4803e-16 -5.49434e-17 -0 1.4803e-16 -0 1.4803e-16)
(1.4803e-16 -5.50639e-17 -0 1.4803e-16 -0 1.4803e-16)
(1.4803e-16 -5.50746e-17 -0 1.4803e-16 -0 1.4803e-16)
(1.4803e-16 -5.56195e-17 -0 1.4803e-16 -0 1.4803e-16)
(1.4803e-16 -5.40548e-17 -0 1.4803e-16 -0 1.4803e-16)
(1.4803e-16 -5.40864e-17 -0 1.4803e-16 -0 1.4803e-16)
(1.4803e-16 -5.41638e-17 -0 1.4803e-16 -0 1.4803e-16)
(1.4803e-16 -5.46497e-17 -0 1.4803e-16 -0 1.4803e-16)
(1.4803e-16 -5.29964e-17 -0 1.4803e-16 -0 1.4803e-16)
(1.4803e-16 -5.30165e-17 -0 1.4803e-16 -0 1.4803e-16)
(1.4803e-16 -5.31584e-17 -0 1.4803e-16 -0 1.4803e-16)
(1.4803e-16 -5.35763e-17 -0 1.4803e-16 -0 1.4803e-16)
(1.4803e-16 -5.18141e-17 -0 1.4803e-16 -0 1.4803e-16)
(1.4803e-16 -5.19411e-17 -0 1.4803e-16 -0 1.4803e-16)
(1.4803e-16 -5.19716e-17 -0 1.4803e-16 -0 1.4803e-16)
(1.4803e-16 -5.24084e-17 -0 1.4803e-16 -0 1.4803e-16)
(1.4803e-16 -5.05267e-17 -0 1.4803e-16 -0 1.4803e-16)
(1.4803e-16 -5.06763e-17 -0 1.4803e-16 -0 1.4803e-16)
(1.4803e-16 -5.06942e-17 -0 1.4803e-16 -0 1.4803e-16)
(1.4803e-16 -5.11256e-17 -0 1.4803e-16 -0 1.4803e-16)
(1.4803e-16 -4.91209e-17 -0 1.4803e-16 -0 1.4803e-16)
(1.4803e-16 -4.92791e-17 -0 1.4803e-16 -0 1.4803e-16)
(1.4803e-16 -4.92936e-17 -0 1.4803e-16 -0 1.4803e-16)
(1.4803e-16 -4.9717e-17 -0 1.4803e-16 -0 1.4803e-16)
(1.4803e-16 -4.75858e-17 -0 1.4803e-16 -0 1.4803e-16)
(1.4803e-16 -4.77447e-17 -0 1.4803e-16 -0 1.4803e-16)
(1.4803e-16 -4.77582e-17 -0 1.4803e-16 -0 1.4803e-16)
(1.4803e-16 -4.81733e-17 -0 1.4803e-16 -0 1.4803e-16)
(1.4803e-16 -4.59108e-17 -0 1.4803e-16 -0 1.4803e-16)
(1.4803e-16 -4.60644e-17 -0 1.4803e-16 -0 1.4803e-16)
(1.4803e-16 -4.60777e-17 -0 1.4803e-16 -0 1.4803e-16)
(1.4803e-16 -4.64846e-17 -0 1.4803e-16 -0 1.4803e-16)
(1.4803e-16 -4.40851e-17 -0 1.4803e-16 -0 1.4803e-16)
(1.4803e-16 -4.42273e-17 -0 1.4803e-16 -0 1.4803e-16)
(1.4803e-16 -4.42423e-17 -0 1.4803e-16 -0 1.4803e-16)
(1.4803e-16 -4.46405e-17 -0 1.4803e-16 -0 1.4803e-16)
(1.4803e-16 -4.20968e-17 -0 1.4803e-16 -0 1.4803e-16)
(1.4803e-16 -4.22197e-17 -0 1.4803e-16 -0 1.4803e-16)
(1.4803e-16 -4.22423e-17 -0 1.4803e-16 -0 1.4803e-16)
(1.4803e-16 -4.26311e-17 -0 1.4803e-16 -0 1.4803e-16)
(1.4803e-16 -3.99323e-17 -0 1.4803e-16 -0 1.4803e-16)
(1.4803e-16 -4.00239e-17 -0 1.4803e-16 -0 1.4803e-16)
(1.4803e-16 -4.00687e-17 -0 1.4803e-16 -0 1.4803e-16)
(1.4803e-16 -4.04471e-17 -0 1.4803e-16 -0 1.4803e-16)
(1.4803e-16 -3.75729e-17 -0 1.4803e-16 -0 1.4803e-16)
(1.4803e-16 -3.76131e-17 -0 1.4803e-16 -0 1.4803e-16)
(1.4803e-16 -3.7711e-17 -0 1.4803e-16 -0 1.4803e-16)
(1.4803e-16 -3.80809e-17 -0 1.4803e-16 -0 1.4803e-16)
(1.4803e-16 -3.49865e-17 -0 1.4803e-16 -0 1.4803e-16)
(1.4803e-16 -3.5122e-17 -0 1.4803e-16 -0 1.4803e-16)
(1.4803e-16 -3.51019e-17 -0 1.4803e-16 -0 1.4803e-16)
(1.4803e-16 -3.55198e-17 -0 1.4803e-16 -0 1.4803e-16)
(1.4803e-16 -3.22607e-17 -0 1.4803e-16 -0 1.4803e-16)
(1.4803e-16 -3.23418e-17 -0 1.4803e-16 -0 1.4803e-16)
(1.4803e-16 -3.23825e-17 -0 1.4803e-16 -0 1.4803e-16)
(1.4803e-16 -3.27201e-17 -0 1.4803e-16 -0 1.4803e-16)
(1.4803e-16 -2.93521e-17 -0 1.4803e-16 -0 1.4803e-16)
(1.4803e-16 -2.93113e-17 -0 1.4803e-16 -0 1.4803e-16)
(1.4803e-16 -2.94776e-17 -0 1.4803e-16 -0 1.4803e-16)
(1.4803e-16 -2.96926e-17 -0 1.4803e-16 -0 1.4803e-16)
(1.4803e-16 -2.61579e-17 -0 1.4803e-16 -0 1.4803e-16)
(1.4803e-16 -2.61205e-17 -0 1.4803e-16 -0 1.4803e-16)
(1.4803e-16 -2.62835e-17 -0 1.4803e-16 -0 1.4803e-16)
(1.4803e-16 -2.64526e-17 -0 1.4803e-16 -0 1.4803e-16)
(1.4803e-16 -2.2729e-17 -0 1.4803e-16 -0 1.4803e-16)
(1.4803e-16 -2.26963e-17 -0 1.4803e-16 -0 1.4803e-16)
(1.4803e-16 -2.28411e-17 -0 1.4803e-16 -0 1.4803e-16)
(1.4803e-16 -2.29843e-17 -0 1.4803e-16 -0 1.4803e-16)
(1.4803e-16 -1.90661e-17 -0 1.4803e-16 -0 1.4803e-16)
(1.4803e-16 -1.90376e-17 -0 1.4803e-16 -0 1.4803e-16)
(1.4803e-16 -1.91568e-17 -0 1.4803e-16 -0 1.4803e-16)
(1.4803e-16 -1.92839e-17 -0 1.4803e-16 -0 1.4803e-16)
(1.4803e-16 -1.51729e-17 -0 1.4803e-16 -0 1.4803e-16)
(1.4803e-16 -1.51511e-17 -0 1.4803e-16 -0 1.4803e-16)
(1.4803e-16 -1.52359e-17 -0 1.4803e-16 -0 1.4803e-16)
(1.4803e-16 -1.53533e-17 -0 1.4803e-16 -0 1.4803e-16)
(1.4803e-16 -1.10603e-17 -0 1.4803e-16 -0 1.4803e-16)
(1.4803e-16 -1.10533e-17 -0 1.4803e-16 -0 1.4803e-16)
(1.4803e-16 -1.11e-17 -0 1.4803e-16 -0 1.4803e-16)
(1.4803e-16 -1.12003e-17 -0 1.4803e-16 -0 1.4803e-16)
(1.4803e-16 -6.74967e-18 -0 1.4803e-16 -0 1.4803e-16)
(1.4803e-16 -6.77186e-18 -0 1.4803e-16 -0 1.4803e-16)
(1.4803e-16 -6.78042e-18 -0 1.4803e-16 -0 1.4803e-16)
(1.4803e-16 -6.84043e-18 -0 1.4803e-16 -0 1.4803e-16)
(1.4803e-16 -2.27674e-18 -0 1.4803e-16 -0 1.4803e-16)
(1.4803e-16 -2.28825e-18 -0 1.4803e-16 -0 1.4803e-16)
(1.4803e-16 -2.29065e-18 -0 1.4803e-16 -0 1.4803e-16)
(1.4803e-16 -2.3107e-18 -0 1.4803e-16 -0 1.4803e-16)
)
;

boundaryField
{
    inlet
    {
        type            cyclic;
    }
    outlet
    {
        type            cyclic;
    }
    fixedWalls-bottom
    {
        type            kqRWallFunction;
        value           uniform (1.4803e-16 -0 -0 1.4803e-16 -0 1.4803e-16);
    }
    fixedWalls-top
    {
        type            symmetry;
    }
    frontAndBack
    {
        type            empty;
    }
}


// ************************************************************************* //
