/*--------------------------------*- C++ -*----------------------------------*\
  =========                 |
  \\      /  F ield         | OpenFOAM: The Open Source CFD Toolbox
   \\    /   O peration     | Website:  https://openfoam.org
    \\  /    A nd           | Version:  10
     \\/     M anipulation  |
\*---------------------------------------------------------------------------*/
FoamFile
{
    format      ascii;
    class       volScalarField;
    location    "2500";
    object      k;
}
// * * * * * * * * * * * * * * * * * * * * * * * * * * * * * * * * * * * * * //

dimensions      [0 2 -2 0 0 0 0];

internalField   nonuniform List<scalar> 
400
(
1.04042e-07
1.04188e-07
1.04278e-07
1.04259e-07
3.12126e-06
3.12564e-06
3.12835e-06
3.12779e-06
2.20948e-05
2.21258e-05
2.2145e-05
2.2141e-05
8.01524e-05
8.02657e-05
8.03348e-05
8.03203e-05
0.000205988
0.000206283
0.000206458
0.00020642
0.000429326
0.000429948
0.000430305
0.000430225
0.000773502
0.000774634
0.000775249
0.000775102
0.00124552
0.00124734
0.00124826
0.00124803
0.00182935
0.00183195
0.00183317
0.00183282
0.0024893
0.00249261
0.00249406
0.00249361
0.00318241
0.00318621
0.00318777
0.00318723
0.00387087
0.00387486
0.00387641
0.00387581
0.00452803
0.0045319
0.00453333
0.00453268
0.00513834
0.00514183
0.00514307
0.00514238
0.00569485
0.00569784
0.00569884
0.0056981
0.00619684
0.00619946
0.00620016
0.00619929
0.00664681
0.00664904
0.00664941
0.00664839
0.00704722
0.00704906
0.0070491
0.00704788
0.00740114
0.00740256
0.00740234
0.00740087
0.007712
0.00771301
0.00771256
0.00771086
0.00798327
0.00798391
0.00798331
0.0079814
0.0082184
0.00821875
0.00821804
0.00821598
0.00842072
0.00842085
0.00842008
0.00841792
0.00859338
0.00859335
0.00859255
0.00859037
0.00873932
0.00873919
0.00873836
0.00873626
0.00886125
0.00886106
0.00886019
0.00885829
0.00896164
0.00896145
0.00896049
0.00895895
0.00904275
0.00904266
0.00904152
0.00904053
0.00910685
0.00910679
0.00910536
0.00910513
0.00915583
0.00915576
0.00915392
0.00915469
0.00919143
0.00919134
0.00918916
0.00919074
0.00921525
0.00921514
0.00921266
0.00921492
0.00922875
0.00922862
0.00922588
0.00922868
0.00923322
0.00923306
0.0092301
0.00923333
0.00922969
0.00922948
0.00922633
0.00922992
0.00921892
0.00921865
0.00921535
0.00921922
0.00920153
0.00920115
0.00919772
0.00920179
0.00917796
0.00917738
0.00917384
0.00917802
0.00914859
0.00914769
0.00914407
0.0091482
0.0091134
0.00911243
0.0091087
0.00911293
0.00907265
0.00907187
0.00906799
0.00907247
0.00902672
0.00902628
0.00902216
0.00902707
0.00897599
0.00897581
0.00897142
0.00897659
0.00892057
0.00892057
0.00891594
0.0089213
0.00886056
0.00886064
0.00885589
0.00886136
0.0087961
0.00879615
0.00879138
0.0087969
0.00872734
0.00872722
0.00872255
0.00872802
0.00865443
0.00865391
0.00864949
0.00865475
0.00857761
0.00857632
0.00857229
0.00857709
0.00849652
0.00849475
0.00849103
0.00849558
0.0084114
0.00840932
0.00840579
0.00841021
0.00832236
0.00832013
0.00831666
0.00832103
0.0082295
0.00822725
0.00822373
0.0082281
0.00813287
0.00813074
0.00812707
0.0081315
0.00803246
0.00803061
0.00802678
0.00803132
0.00792867
0.00792679
0.00792296
0.00792768
0.00782113
0.0078196
0.00781566
0.00782066
0.00770981
0.00770918
0.00770495
0.00771048
0.00759549
0.00759545
0.00759092
0.00759669
0.00747805
0.00747828
0.00747368
0.00747953
0.00735749
0.00735771
0.00735333
0.00735911
0.00723386
0.00723394
0.0072299
0.00723545
0.0071073
0.00710736
0.00710344
0.00710844
0.00697782
0.00697794
0.00697401
0.00697878
0.0068455
0.00684566
0.00684171
0.00684636
0.00671041
0.00671057
0.00670662
0.00671118
0.00657257
0.00657274
0.00656879
0.00657327
0.00643203
0.00643222
0.00642827
0.00643267
0.00628884
0.00628906
0.00628514
0.00628945
0.00614309
0.00614332
0.00613945
0.00614367
0.00599482
0.00599506
0.00599125
0.00599538
0.00584411
0.00584436
0.00584061
0.00584465
0.00569102
0.00569129
0.0056876
0.00569155
0.00553563
0.00553592
0.00553228
0.00553616
0.00537802
0.00537836
0.00537474
0.00537854
0.00521829
0.0052187
0.00521508
0.00521881
0.00505654
0.00505702
0.00505345
0.00505708
0.00489294
0.00489347
0.00488997
0.0048935
0.00472764
0.00472821
0.00472477
0.00472824
0.00456084
0.00456143
0.00455799
0.00456155
0.00439277
0.00439345
0.00438982
0.0043937
0.00422361
0.00422477
0.00422043
0.00422516
0.00405358
0.00405486
0.00405021
0.00405509
0.00388301
0.00388355
0.00387959
0.00388396
0.00371258
0.00371183
0.00370887
0.00371191
0.00354115
0.00354077
0.00353838
0.00354068
0.00337101
0.00337077
0.00336865
0.0033706
0.00320273
0.00320238
0.00320036
0.0032023
0.00303718
0.00303636
0.00303434
0.00303666
0.00287551
0.0028736
0.00287159
0.00287493
0.00271832
0.00271524
0.00271329
0.00271695
0.00256637
0.00256273
0.00256084
0.00256453
0.00242154
0.00241769
0.00241584
0.00241948
0.00228573
0.00228196
0.00228015
0.00228371
0.00216126
0.00215776
0.00215596
0.00215948
0.00205064
0.00204775
0.00204581
0.00204939
0.00195647
0.00195483
0.00195241
0.00195631
0.00188267
0.00188189
0.00187889
0.00188296
0.00183056
0.001832
0.00182764
0.00183203
0.0018036
0.00180547
0.00180108
0.0018056
)
;

boundaryField
{
    inlet
    {
        type            cyclic;
    }
    outlet
    {
        type            cyclic;
    }
    fixedWalls-bottom
    {
        type            kqRWallFunction;
        value           nonuniform List<scalar> 4(1.04042e-07 1.04188e-07 1.04278e-07 1.04259e-07);
    }
    fixedWalls-top
    {
        type            symmetry;
    }
    frontAndBack
    {
        type            empty;
    }
}


// ************************************************************************* //
