/*--------------------------------*- C++ -*----------------------------------*\
  =========                 |
  \\      /  F ield         | OpenFOAM: The Open Source CFD Toolbox
   \\    /   O peration     | Website:  https://openfoam.org
    \\  /    A nd           | Version:  10
     \\/     M anipulation  |
\*---------------------------------------------------------------------------*/
FoamFile
{
    format      ascii;
    class       volScalarField;
    location    "2500";
    object      omega;
}
// * * * * * * * * * * * * * * * * * * * * * * * * * * * * * * * * * * * * * //

dimensions      [0 0 -1 0 0 0 0];

internalField   nonuniform List<scalar> 
400
(
7181.22
7181.22
7181.22
7181.22
1228.47
1228.47
1228.47
1228.47
413.75
413.749
413.749
413.749
195.35
195.349
195.348
195.349
111.957
111.954
111.953
111.954
72.8807
72.8731
72.8719
72.8731
52.0451
52.0326
52.0309
52.0326
39.8808
39.8631
39.8611
39.8631
32.2373
32.2151
32.213
32.2152
27.0982
27.073
27.0711
27.0734
23.4116
23.3856
23.3839
23.3861
20.6069
20.5819
20.5807
20.5826
18.367
18.3446
18.344
18.3455
16.5117
16.4931
16.4932
16.4941
14.9354
14.9213
14.9222
14.9222
13.5698
13.5603
13.5613
13.5611
12.3694
12.3635
12.3653
12.3656
11.3054
11.3016
11.3047
11.3057
10.3564
10.3549
10.3591
10.3605
9.50869
9.50866
9.51406
9.51553
8.75102
8.75207
8.75837
8.75993
8.07432
8.07603
8.08295
8.08457
7.47072
7.4728
7.48009
7.48164
6.93318
6.93541
6.94293
6.94411
6.45522
6.45744
6.46533
6.46552
6.03077
6.03288
6.04024
6.04032
5.65414
5.65606
5.66266
5.66264
5.32009
5.32174
5.32744
5.32729
5.02373
5.02507
5.02979
5.02942
4.76056
4.76152
4.76532
4.7645
4.52629
4.52694
4.53
4.52873
4.31712
4.31762
4.32018
4.31866
4.12989
4.13032
4.13253
4.13082
3.96165
3.96232
3.96404
3.96223
3.80978
3.81106
3.81213
3.81028
3.67276
3.67407
3.67461
3.67254
3.54822
3.54954
3.54955
3.54721
3.4344
3.43549
3.43533
3.43262
3.32985
3.33069
3.33042
3.32735
3.2334
3.234
3.23366
3.23024
3.14405
3.14455
3.14411
3.14036
3.06113
3.06158
3.06103
3.05696
2.98405
2.98447
2.98383
2.97945
2.91228
2.91268
2.91198
2.90729
2.84538
2.84571
2.84505
2.84004
2.78297
2.7831
2.78259
2.77726
2.72456
2.72472
2.72413
2.71858
2.66963
2.66984
2.66912
2.66339
2.61756
2.61777
2.61692
2.61106
2.56801
2.5681
2.56721
2.56131
2.52061
2.52064
2.51976
2.51379
2.47508
2.47514
2.47427
2.46823
2.43119
2.43142
2.43047
2.42439
2.38877
2.38939
2.38812
2.38209
2.3481
2.34846
2.34727
2.34109
2.30856
2.30882
2.30761
2.30127
2.27008
2.27029
2.26897
2.26257
2.23258
2.23278
2.23134
2.22489
2.19599
2.19624
2.19472
2.18815
2.16025
2.16061
2.15904
2.15227
2.12529
2.12579
2.12423
2.11719
2.09105
2.09173
2.09023
2.08284
2.05752
2.05831
2.05697
2.04916
2.02482
2.02527
2.02444
2.01611
1.99246
1.99325
1.99214
1.98381
1.96054
1.96196
1.96029
1.95215
1.92975
1.93073
1.92948
1.9209
1.89959
1.90012
1.89894
1.89032
1.86973
1.87071
1.86876
1.86018
1.84028
1.8414
1.83924
1.83054
1.81125
1.81252
1.81025
1.80142
1.78265
1.78404
1.7818
1.77283
1.75445
1.75588
1.75388
1.74478
1.72663
1.72789
1.72653
1.71722
1.69914
1.69976
1.69976
1.69007
1.67195
1.67251
1.67301
1.66327
1.64494
1.64551
1.64611
1.63678
1.61788
1.61889
1.61955
1.6103
1.59156
1.59269
1.59372
1.58356
1.56543
1.56711
1.56813
1.55691
1.53921
1.54158
1.54238
1.53077
1.5135
1.51613
1.51701
1.50525
1.4884
1.49074
1.49171
1.48014
1.46368
1.46507
1.46584
1.45576
1.43841
1.43862
1.43988
1.43182
1.41322
1.41271
1.41543
1.40695
1.38757
1.38707
1.39084
1.38186
1.36172
1.36157
1.36685
1.35623
1.33611
1.33625
1.34233
1.33063
1.31081
1.31119
1.31746
1.30513
1.28585
1.28646
1.29257
1.2797
1.26143
1.26203
1.26795
1.2546
1.23834
1.23795
1.24435
1.23076
1.2192
1.21592
1.22299
1.20833
1.1994
1.1949
1.20293
1.18676
1.18256
1.17425
1.18514
1.16474
1.16785
1.15507
1.17095
1.14154
1.15084
1.13765
1.14714
1.12255
1.12408
1.13146
1.1287
1.10242
1.10714
1.11264
1.11349
1.08416
)
;

boundaryField
{
    inlet
    {
        type            cyclic;
    }
    outlet
    {
        type            cyclic;
    }
    fixedWalls-bottom
    {
        beta1           0.075;
        blended         0;
        type            omegaWallFunction;
        value           uniform 7181.22;
    }
    fixedWalls-top
    {
        type            symmetry;
    }
    frontAndBack
    {
        type            empty;
    }
}


// ************************************************************************* //
