/*--------------------------------*- C++ -*----------------------------------*\
  =========                 |
  \\      /  F ield         | OpenFOAM: The Open Source CFD Toolbox
   \\    /   O peration     | Website:  https://openfoam.org
    \\  /    A nd           | Version:  10
     \\/     M anipulation  |
\*---------------------------------------------------------------------------*/
FoamFile
{
    format      ascii;
    class       volScalarField;
    location    "2500";
    object      p;
}
// * * * * * * * * * * * * * * * * * * * * * * * * * * * * * * * * * * * * * //

dimensions      [0 2 -2 0 0 0 0];

internalField   nonuniform List<scalar> 
400
(
1.22391e-10
-6.57666e-07
-7.74886e-07
-1.31917e-07
8.01743e-10
-6.60421e-07
-7.76206e-07
-1.29182e-07
2.42575e-09
-6.63599e-07
-7.7782e-07
-1.26011e-07
4.39578e-09
-6.66696e-07
-7.79524e-07
-1.22923e-07
6.45004e-09
-6.69629e-07
-7.81421e-07
-1.20001e-07
8.73918e-09
-6.7218e-07
-7.8363e-07
-1.17467e-07
1.13728e-08
-6.73638e-07
-7.86228e-07
-1.16026e-07
1.44355e-08
-6.72666e-07
-7.89255e-07
-1.17018e-07
1.79702e-08
-6.67224e-07
-7.92764e-07
-1.2248e-07
2.21302e-08
-6.55207e-07
-7.96883e-07
-1.34518e-07
2.71541e-08
-6.35162e-07
-8.01865e-07
-1.54585e-07
3.34502e-08
-6.06971e-07
-8.08098e-07
-1.828e-07
4.14392e-08
-5.71934e-07
-8.16021e-07
-2.17858e-07
5.10533e-08
-5.34468e-07
-8.25552e-07
-2.55349e-07
6.02635e-08
-5.05968e-07
-8.34684e-07
-2.83869e-07
6.94033e-08
-4.8977e-07
-8.43727e-07
-3.00089e-07
8.17226e-08
-4.78392e-07
-8.55951e-07
-3.11487e-07
9.89066e-08
-4.69274e-07
-8.73018e-07
-3.20629e-07
1.21471e-07
-4.6232e-07
-8.9547e-07
-3.27604e-07
1.49452e-07
-4.57681e-07
-9.23314e-07
-3.32268e-07
1.82459e-07
-4.54786e-07
-9.56186e-07
-3.35186e-07
2.19848e-07
-4.52923e-07
-9.93415e-07
-3.37075e-07
2.60736e-07
-4.51145e-07
-1.03415e-06
-3.38875e-07
3.04208e-07
-4.48836e-07
-1.07743e-06
-3.41209e-07
3.49218e-07
-4.45331e-07
-1.12227e-06
-3.44733e-07
3.94729e-07
-4.40478e-07
-1.16757e-06
-3.4961e-07
4.39636e-07
-4.34047e-07
-1.21228e-06
-3.56059e-07
4.82956e-07
-4.26316e-07
-1.25537e-06
-3.63816e-07
5.24001e-07
-4.1753e-07
-1.2962e-06
-3.72622e-07
5.63216e-07
-4.08259e-07
-1.33517e-06
-3.8192e-07
6.03265e-07
-3.97747e-07
-1.37498e-06
-3.92449e-07
6.49148e-07
-3.85208e-07
-1.4206e-06
-4.05002e-07
7.05022e-07
-3.72159e-07
-1.47622e-06
-4.18055e-07
7.67469e-07
-3.67422e-07
-1.53839e-06
-4.22825e-07
8.19802e-07
-3.85051e-07
-1.59043e-06
-4.05253e-07
8.54653e-07
-4.19147e-07
-1.62499e-06
-3.71214e-07
8.78649e-07
-4.51318e-07
-1.64871e-06
-3.39075e-07
8.95212e-07
-4.78161e-07
-1.66498e-06
-3.12261e-07
9.05558e-07
-5.00922e-07
-1.67506e-06
-2.89521e-07
9.09444e-07
-5.20841e-07
-1.67866e-06
-2.69627e-07
9.0623e-07
-5.38118e-07
-1.67518e-06
-2.52369e-07
8.95379e-07
-5.53346e-07
-1.66406e-06
-2.37163e-07
8.76651e-07
-5.66745e-07
-1.64508e-06
-2.23777e-07
8.50326e-07
-5.79067e-07
-1.61849e-06
-2.11469e-07
8.17154e-07
-5.90522e-07
-1.58507e-06
-2.00015e-07
7.78526e-07
-6.01151e-07
-1.54619e-06
-1.89387e-07
7.34153e-07
-6.10351e-07
-1.50159e-06
-1.80177e-07
6.82948e-07
-6.17802e-07
-1.45015e-06
-1.72719e-07
6.2521e-07
-6.22451e-07
-1.39219e-06
-1.68052e-07
5.63276e-07
-6.23931e-07
-1.33002e-06
-1.66556e-07
4.99225e-07
-6.23221e-07
-1.26576e-06
-1.67243e-07
4.33417e-07
-6.22776e-07
-1.19974e-06
-1.67662e-07
3.64669e-07
-6.24026e-07
-1.13079e-06
-1.66373e-07
2.91047e-07
-6.2715e-07
-1.05697e-06
-1.63205e-07
2.12681e-07
-6.29213e-07
-9.78432e-07
-1.61089e-07
1.30668e-07
-6.27922e-07
-8.96247e-07
-1.62333e-07
4.44207e-08
-6.22535e-07
-8.09853e-07
-1.67673e-07
-4.58256e-08
-6.1313e-07
-7.19461e-07
-1.77041e-07
-1.40623e-07
-6.00998e-07
-6.24543e-07
-1.89136e-07
-2.40859e-07
-5.88465e-07
-5.24187e-07
-2.01634e-07
-3.47783e-07
-5.77493e-07
-4.17167e-07
-2.12558e-07
-4.62207e-07
-5.70475e-07
-3.02648e-07
-2.19513e-07
-5.8409e-07
-5.68794e-07
-1.80692e-07
-2.21103e-07
-7.10567e-07
-5.72309e-07
-5.41444e-08
-2.17474e-07
-8.4222e-07
-5.78887e-07
7.75595e-08
-2.10759e-07
-9.82112e-07
-5.87813e-07
2.17497e-07
-2.01681e-07
-1.12683e-06
-5.9737e-07
3.62241e-07
-1.91954e-07
-1.27219e-06
-6.02134e-07
5.0762e-07
-1.87029e-07
-1.42606e-06
-5.98115e-07
6.61486e-07
-1.90905e-07
-1.59279e-06
-5.88829e-07
8.28204e-07
-2.00061e-07
-1.76751e-06
-5.78496e-07
1.00289e-06
-2.10259e-07
-1.94652e-06
-5.69988e-07
1.18185e-06
-2.18631e-07
-2.12574e-06
-5.65866e-07
1.361e-06
-2.22612e-07
-2.29755e-06
-5.70613e-07
1.53271e-06
-2.17722e-07
-2.45183e-06
-5.8898e-07
1.68688e-06
-1.99197e-07
-2.58759e-06
-6.1981e-07
1.82255e-06
-1.68215e-07
-2.71044e-06
-6.5535e-07
1.9453e-06
-1.32542e-07
-2.82542e-06
-6.94852e-07
2.06019e-06
-9.29248e-08
-2.94553e-06
-7.42119e-07
2.18019e-06
-4.55231e-08
-3.08483e-06
-7.99093e-07
2.31937e-06
1.1635e-08
-3.24375e-06
-8.66682e-07
2.47812e-06
7.94909e-08
-3.40993e-06
-9.43672e-07
2.64409e-06
1.56811e-07
-3.57145e-06
-1.02126e-06
2.80541e-06
2.34705e-07
-3.71152e-06
-1.08174e-06
2.94529e-06
2.95334e-07
-3.80809e-06
-1.11976e-06
3.0417e-06
3.33355e-07
-3.86363e-06
-1.15596e-06
3.09709e-06
3.69553e-07
-3.8997e-06
-1.211e-06
3.13302e-06
4.24662e-07
-3.93072e-06
-1.29382e-06
3.16393e-06
5.07611e-07
-3.96456e-06
-1.39911e-06
3.19771e-06
6.13075e-07
-4.00381e-06
-1.51052e-06
3.23692e-06
7.24679e-07
-4.05077e-06
-1.61758e-06
3.28384e-06
8.31934e-07
-4.10539e-06
-1.71523e-06
3.33838e-06
9.2979e-07
-4.15985e-06
-1.79801e-06
3.39277e-06
1.01275e-06
-4.21092e-06
-1.85567e-06
3.44375e-06
1.07054e-06
-4.261e-06
-1.89285e-06
3.49376e-06
1.10781e-06
-4.31296e-06
-1.92037e-06
3.54566e-06
1.13543e-06
-4.37427e-06
-1.94027e-06
3.60689e-06
1.15546e-06
-4.44263e-06
-1.94027e-06
3.67517e-06
1.15562e-06
-4.52048e-06
-1.94234e-06
3.75292e-06
1.15802e-06
-4.58446e-06
-1.95779e-06
3.81678e-06
1.17394e-06
)
;

boundaryField
{
    inlet
    {
        type            cyclic;
    }
    outlet
    {
        type            cyclic;
    }
    fixedWalls-bottom
    {
        type            zeroGradient;
    }
    fixedWalls-top
    {
        type            symmetry;
    }
    frontAndBack
    {
        type            empty;
    }
}


// ************************************************************************* //
