/*--------------------------------*- C++ -*----------------------------------*\
  =========                 |
  \\      /  F ield         | OpenFOAM: The Open Source CFD Toolbox
   \\    /   O peration     | Website:  https://openfoam.org
    \\  /    A nd           | Version:  10
     \\/     M anipulation  |
\*---------------------------------------------------------------------------*/
FoamFile
{
    format      ascii;
    class       volSymmTensorField;
    location    "2500";
    object      R;
}
// * * * * * * * * * * * * * * * * * * * * * * * * * * * * * * * * * * * * * //

dimensions      [0 2 -2 0 0 0 0];

internalField   nonuniform List<symmTensor> 
400
(
(6.93612e-08 -1.3042e-10 -0 6.93612e-08 -0 6.93612e-08)
(6.94584e-08 -1.30612e-10 -0 6.94584e-08 -0 6.94584e-08)
(6.95186e-08 -1.30735e-10 -0 6.95186e-08 -0 6.95186e-08)
(6.95062e-08 -1.30711e-10 -0 6.95062e-08 -0 6.95062e-08)
(2.08084e-06 -2.27633e-08 -0 2.08084e-06 -0 2.08084e-06)
(2.08376e-06 -2.27968e-08 -0 2.08376e-06 -0 2.08376e-06)
(2.08557e-06 -2.28185e-08 -0 2.08557e-06 -0 2.08557e-06)
(2.08519e-06 -2.28142e-08 -0 2.08519e-06 -0 2.08519e-06)
(1.47299e-05 -4.76012e-07 -0 1.47299e-05 -0 1.47299e-05)
(1.47506e-05 -4.76716e-07 -0 1.47506e-05 -0 1.47506e-05)
(1.47633e-05 -4.77168e-07 -0 1.47633e-05 -0 1.47633e-05)
(1.47607e-05 -4.77078e-07 -0 1.47607e-05 -0 1.47607e-05)
(5.34349e-05 -3.63513e-06 -0 5.34349e-05 -0 5.34349e-05)
(5.35104e-05 -3.64058e-06 -0 5.35105e-05 -0 5.35104e-05)
(5.35565e-05 -3.64402e-06 -0 5.35565e-05 -0 5.35565e-05)
(5.35469e-05 -3.64331e-06 -0 5.35468e-05 -0 5.35468e-05)
(0.000137326 -1.61571e-05 -0 0.000137325 -0 0.000137325)
(0.000137522 -1.61821e-05 -0 0.000137522 -0 0.000137522)
(0.000137639 -1.61972e-05 -0 0.000137639 -0 0.000137639)
(0.000137614 -1.61939e-05 -0 0.000137613 -0 0.000137614)
(0.000286218 -5.09743e-05 -0 0.000286217 -0 0.000286217)
(0.000286632 -5.10582e-05 -0 0.000286632 -0 0.000286632)
(0.00028687 -5.11048e-05 -0 0.00028687 -0 0.00028687)
(0.000286817 -5.10933e-05 -0 0.000286816 -0 0.000286816)
(0.000515668 -0.000125459 -0 0.000515667 -0 0.000515668)
(0.000516421 -0.000125684 -0 0.000516424 -0 0.000516422)
(0.000516832 -0.000125794 -0 0.000516833 -0 0.000516832)
(0.000516736 -0.000125763 -0 0.000516734 -0 0.000516735)
(0.00083035 -0.000253658 -0 0.000830348 -0 0.000830349)
(0.000831557 -0.000254158 -0 0.000831563 -0 0.00083156)
(0.000832173 -0.000254362 -0 0.000832176 -0 0.000832175)
(0.00083202 -0.000254292 -0 0.000832014 -0 0.000832017)
(0.00121957 -0.000436622 -0 0.00121957 -0 0.00121957)
(0.00122129 -0.000437549 -0 0.0012213 -0 0.0012213)
(0.00122211 -0.000437854 -0 0.00122211 -0 0.00122211)
(0.00122189 -0.000437725 -0 0.00122188 -0 0.00122188)
(0.00165954 -0.000660092 -0 0.00165953 -0 0.00165953)
(0.00166173 -0.000661543 -0 0.00166175 -0 0.00166174)
(0.0016627 -0.000661922 -0 0.00166271 -0 0.0016627)
(0.00166241 -0.000661721 -0 0.0016624 -0 0.00166241)
(0.00212161 -0.00090227 -0 0.0021216 -0 0.0021216)
(0.00212413 -0.000904223 -0 0.00212415 -0 0.00212414)
(0.00212518 -0.000904623 -0 0.00212518 -0 0.00212518)
(0.00212483 -0.000904349 -0 0.00212481 -0 0.00212482)
(0.00258058 -0.00114367 -0 0.00258058 -0 0.00258058)
(0.00258323 -0.00114598 -0 0.00258325 -0 0.00258324)
(0.00258428 -0.00114635 -0 0.00258428 -0 0.00258428)
(0.00258388 -0.00114602 -0 0.00258386 -0 0.00258387)
(0.00301868 -0.0013717 -0 0.00301869 -0 0.00301869)
(0.00302126 -0.00137416 -0 0.00302127 -0 0.00302127)
(0.00302223 -0.00137445 -0 0.00302222 -0 0.00302222)
(0.0030218 -0.00137409 -0 0.00302178 -0 0.00302179)
(0.00342555 -0.00158071 -0 0.00342557 -0 0.00342556)
(0.00342789 -0.00158325 -0 0.00342789 -0 0.00342789)
(0.00342872 -0.00158344 -0 0.00342871 -0 0.00342872)
(0.00342826 -0.00158305 -0 0.00342825 -0 0.00342826)
(0.00379656 -0.0017654 -0 0.00379658 -0 0.00379657)
(0.00379856 -0.00176633 -0 0.00379856 -0 0.00379856)
(0.00379924 -0.00176664 -0 0.00379922 -0 0.00379923)
(0.00379873 -0.00176641 -0 0.00379873 -0 0.00379873)
(0.00413121 -0.00192102 -0 0.00413125 -0 0.00413123)
(0.00413297 -0.00192183 -0 0.00413297 -0 0.00413297)
(0.00413346 -0.00192205 -0 0.00413342 -0 0.00413344)
(0.00413286 -0.00192178 -0 0.00413287 -0 0.00413286)
(0.00443118 -0.00206051 -0 0.00443123 -0 0.0044312)
(0.00443269 -0.00206121 -0 0.00443269 -0 0.00443269)
(0.00443297 -0.00206132 -0 0.00443292 -0 0.00443294)
(0.00443226 -0.002061 -0 0.00443226 -0 0.00443226)
(0.00469812 -0.00218465 -0 0.00469817 -0 0.00469814)
(0.00469937 -0.00218522 -0 0.00469937 -0 0.00469937)
(0.00469943 -0.00218523 -0 0.00469937 -0 0.0046994)
(0.00469859 -0.00218485 -0 0.00469858 -0 0.00469858)
(0.00493406 -0.00229438 -0 0.00493413 -0 0.0049341)
(0.00493504 -0.00229482 -0 0.00493505 -0 0.00493504)
(0.00493493 -0.00229475 -0 0.00493486 -0 0.00493489)
(0.00493392 -0.00229429 -0 0.00493391 -0 0.00493391)
(0.0051413 -0.00239078 -0 0.00514137 -0 0.00514133)
(0.005142 -0.00239109 -0 0.00514201 -0 0.005142)
(0.00514174 -0.00239095 -0 0.00514168 -0 0.00514171)
(0.00514058 -0.00239043 -0 0.00514057 -0 0.00514057)
(0.00532215 -0.00247493 -0 0.00532221 -0 0.00532218)
(0.0053226 -0.00247513 -0 0.00532262 -0 0.00532261)
(0.00532224 -0.00247495 -0 0.00532217 -0 0.0053222)
(0.00532095 -0.00247436 -0 0.00532093 -0 0.00532094)
(0.0054789 -0.00254793 -0 0.00547896 -0 0.00547893)
(0.00547915 -0.00254804 -0 0.00547918 -0 0.00547917)
(0.00547872 -0.00254782 -0 0.00547867 -0 0.00547869)
(0.00547733 -0.00254718 -0 0.00547731 -0 0.00547732)
(0.00561379 -0.00261063 -0 0.00561384 -0 0.00561381)
(0.00561389 -0.00261067 -0 0.00561391 -0 0.0056139)
(0.00561341 -0.00261043 -0 0.00561336 -0 0.00561339)
(0.00561196 -0.00260976 -0 0.00561193 -0 0.00561194)
(0.0057289 -0.00266405 -0 0.00572894 -0 0.00572892)
(0.00572889 -0.00266404 -0 0.00572892 -0 0.0057289)
(0.00572839 -0.0026638 -0 0.00572834 -0 0.00572837)
(0.00572693 -0.00266312 -0 0.0057269 -0 0.00572691)
(0.0058262 -0.00270924 -0 0.00582623 -0 0.00582622)
(0.00582612 -0.0027092 -0 0.00582614 -0 0.00582613)
(0.00582559 -0.00270895 -0 0.00582556 -0 0.00582557)
(0.00582418 -0.00270829 -0 0.00582416 -0 0.00582417)
(0.00590748 -0.00274701 -0 0.00590751 -0 0.0059075)
(0.00590737 -0.00274696 -0 0.00590738 -0 0.00590737)
(0.00590681 -0.00274669 -0 0.00590678 -0 0.00590679)
(0.00590553 -0.0027461 -0 0.00590552 -0 0.00590553)
(0.00597441 -0.00277812 -0 0.00597444 -0 0.00597442)
(0.0059743 -0.00277806 -0 0.0059743 -0 0.0059743)
(0.00597367 -0.00277777 -0 0.00597364 -0 0.00597366)
(0.00597263 -0.00277729 -0 0.00597263 -0 0.00597263)
(0.00602848 -0.00280326 -0 0.00602851 -0 0.0060285)
(0.00602845 -0.00280323 -0 0.00602843 -0 0.00602844)
(0.0060277 -0.00280288 -0 0.00602767 -0 0.00602768)
(0.00602701 -0.00280257 -0 0.00602703 -0 0.00602702)
(0.00607121 -0.00282313 -0 0.00607125 -0 0.00607123)
(0.00607121 -0.00282311 -0 0.00607117 -0 0.00607119)
(0.00607026 -0.00282267 -0 0.00607023 -0 0.00607024)
(0.00607007 -0.0028226 -0 0.00607011 -0 0.00607009)
(0.00610386 -0.00283831 -0 0.00610391 -0 0.00610388)
(0.00610387 -0.00283829 -0 0.00610381 -0 0.00610384)
(0.00610263 -0.00283772 -0 0.00610259 -0 0.00610261)
(0.0061031 -0.00283796 -0 0.00610316 -0 0.00610313)
(0.00612759 -0.00284935 -0 0.00612764 -0 0.00612762)
(0.00612761 -0.00284932 -0 0.00612751 -0 0.00612756)
(0.00612613 -0.00284864 -0 0.00612608 -0 0.0061261)
(0.00612712 -0.00284913 -0 0.00612721 -0 0.00612716)
(0.00614348 -0.00285673 -0 0.00614352 -0 0.0061435)
(0.00614349 -0.0028567 -0 0.00614336 -0 0.00614343)
(0.00614179 -0.00285593 -0 0.00614175 -0 0.00614177)
(0.00614321 -0.00285663 -0 0.00614334 -0 0.00614328)
(0.00615249 -0.00286092 -0 0.00615251 -0 0.0061525)
(0.0061525 -0.00286087 -0 0.00615233 -0 0.00615241)
(0.0061506 -0.00286002 -0 0.00615058 -0 0.00615058)
(0.00615237 -0.00286089 -0 0.00615254 -0 0.00615245)
(0.00615549 -0.0028623 -0 0.00615547 -0 0.00615548)
(0.00615547 -0.00286225 -0 0.00615527 -0 0.00615537)
(0.00615339 -0.00286133 -0 0.00615341 -0 0.0061534)
(0.00615545 -0.00286233 -0 0.00615565 -0 0.00615555)
(0.00615315 -0.00285801 -0 0.0061531 -0 0.00615312)
(0.00615309 -0.00285702 -0 0.00615289 -0 0.00615299)
(0.00615086 -0.00285585 -0 0.00615091 -0 0.00615089)
(0.00615318 -0.00285856 -0 0.00615338 -0 0.00615328)
(0.00614599 -0.00284567 -0 0.00614591 -0 0.00614595)
(0.00614586 -0.00284492 -0 0.00614568 -0 0.00614577)
(0.00614353 -0.00284406 -0 0.00614361 -0 0.00614357)
(0.00614605 -0.00284669 -0 0.00614624 -0 0.00614614)
(0.0061344 -0.00283366 -0 0.00613431 -0 0.00613436)
(0.00613418 -0.0028328 -0 0.00613402 -0 0.0061341)
(0.00613177 -0.00283212 -0 0.00613186 -0 0.00613181)
(0.00613444 -0.00283512 -0 0.00613461 -0 0.00613453)
(0.00611869 -0.00281961 -0 0.00611859 -0 0.00611864)
(0.00611833 -0.00281877 -0 0.00611818 -0 0.00611826)
(0.00611585 -0.00281811 -0 0.00611594 -0 0.0061159)
(0.0061186 -0.00282149 -0 0.00611875 -0 0.00611868)
(0.00609911 -0.00280377 -0 0.00609901 -0 0.00609906)
(0.00609853 -0.00280289 -0 0.00609839 -0 0.00609846)
(0.006096 -0.00280228 -0 0.0060961 -0 0.00609605)
(0.00609873 -0.00280596 -0 0.00609887 -0 0.0060988)
(0.00607565 -0.00278616 -0 0.00607554 -0 0.0060756)
(0.00607502 -0.00278536 -0 0.00607488 -0 0.00607495)
(0.00607241 -0.00278477 -0 0.00607252 -0 0.00607246)
(0.00607522 -0.0027888 -0 0.00607536 -0 0.00607529)
(0.00604849 -0.00276697 -0 0.00604838 -0 0.00604843)
(0.00604798 -0.00276628 -0 0.00604785 -0 0.00604791)
(0.00604527 -0.00276571 -0 0.00604538 -0 0.00604532)
(0.00604825 -0.00277013 -0 0.00604838 -0 0.00604831)
(0.00601787 -0.00274627 -0 0.00601775 -0 0.00601781)
(0.00601758 -0.00274576 -0 0.00601745 -0 0.00601752)
(0.00601472 -0.00274517 -0 0.00601483 -0 0.00601477)
(0.00601798 -0.00275004 -0 0.00601811 -0 0.00601805)
(0.00598405 -0.00272421 -0 0.00598394 -0 0.005984)
(0.00598394 -0.00272386 -0 0.00598381 -0 0.00598388)
(0.00598089 -0.00272324 -0 0.005981 -0 0.00598095)
(0.00598433 -0.00272851 -0 0.00598446 -0 0.0059844)
(0.0059471 -0.00270085 -0 0.00594699 -0 0.00594705)
(0.00594711 -0.00270062 -0 0.00594699 -0 0.00594705)
(0.00594391 -0.00269997 -0 0.00594401 -0 0.00594396)
(0.00594747 -0.00270561 -0 0.00594759 -0 0.00594753)
(0.00590709 -0.00267624 -0 0.00590699 -0 0.00590704)
(0.00590715 -0.00267607 -0 0.00590704 -0 0.00590709)
(0.00590388 -0.00267542 -0 0.00590397 -0 0.00590392)
(0.00590752 -0.00268139 -0 0.00590763 -0 0.00590757)
(0.00586411 -0.00265039 -0 0.00586402 -0 0.00586407)
(0.00586415 -0.00265035 -0 0.00586405 -0 0.0058641)
(0.00586088 -0.00264963 -0 0.00586097 -0 0.00586092)
(0.00586455 -0.00265592 -0 0.00586466 -0 0.0058646)
(0.00581827 -0.00262338 -0 0.00581818 -0 0.00581823)
(0.0058182 -0.00262326 -0 0.0058181 -0 0.00581815)
(0.00581499 -0.00262265 -0 0.00581507 -0 0.00581503)
(0.00581863 -0.00262916 -0 0.00581873 -0 0.00581868)
(0.00576966 -0.00259528 -0 0.00576958 -0 0.00576962)
(0.00576931 -0.00259501 -0 0.00576923 -0 0.00576927)
(0.00576629 -0.00259454 -0 0.00576636 -0 0.00576632)
(0.00576979 -0.00260122 -0 0.00576988 -0 0.00576983)
(0.00571844 -0.00256629 -0 0.00571837 -0 0.0057184)
(0.00571759 -0.00256572 -0 0.00571751 -0 0.00571755)
(0.00571483 -0.00256547 -0 0.00571489 -0 0.00571486)
(0.00571802 -0.00257223 -0 0.0057181 -0 0.00571806)
(0.00566438 -0.00253622 -0 0.00566432 -0 0.00566435)
(0.0056632 -0.00253552 -0 0.00566312 -0 0.00566316)
(0.00566066 -0.00253541 -0 0.00566071 -0 0.00566069)
(0.00566368 -0.00254225 -0 0.00566376 -0 0.00566372)
(0.00560762 -0.00250516 -0 0.00560757 -0 0.0056076)
(0.00560625 -0.00250436 -0 0.00560617 -0 0.00560621)
(0.00560384 -0.00250436 -0 0.00560389 -0 0.00560386)
(0.00560677 -0.00251133 -0 0.00560685 -0 0.00560681)
(0.00554826 -0.00247318 -0 0.00554822 -0 0.00554824)
(0.00554679 -0.00247231 -0 0.00554671 -0 0.00554675)
(0.00554442 -0.00247238 -0 0.00554447 -0 0.00554444)
(0.00554731 -0.00247949 -0 0.00554739 -0 0.00554735)
(0.00548635 -0.0024403 -0 0.00548631 -0 0.00548633)
(0.00548487 -0.00243942 -0 0.0054848 -0 0.00548483)
(0.00548246 -0.00243949 -0 0.00548251 -0 0.00548249)
(0.00548536 -0.00244675 -0 0.00548543 -0 0.0054854)
(0.00542193 -0.00240661 -0 0.00542189 -0 0.00542191)
(0.00542053 -0.00240553 -0 0.00542046 -0 0.00542049)
(0.00541803 -0.00240577 -0 0.00541807 -0 0.00541805)
(0.00542097 -0.0024131 -0 0.00542103 -0 0.005421)
(0.00535499 -0.00237175 -0 0.00535495 -0 0.00535497)
(0.00535377 -0.00237098 -0 0.00535372 -0 0.00535374)
(0.00535117 -0.00237108 -0 0.00535121 -0 0.00535119)
(0.00535419 -0.0023786 -0 0.00535424 -0 0.00535422)
(0.0052858 -0.00233626 -0 0.00528576 -0 0.00528578)
(0.00528455 -0.00233541 -0 0.0052845 -0 0.00528453)
(0.00528195 -0.00233556 -0 0.00528199 -0 0.00528197)
(0.00528509 -0.00234327 -0 0.00528515 -0 0.00528512)
(0.00521411 -0.00229985 -0 0.00521407 -0 0.00521409)
(0.00521309 -0.00229907 -0 0.00521304 -0 0.00521306)
(0.00521042 -0.00229922 -0 0.00521046 -0 0.00521044)
(0.00521374 -0.00230716 -0 0.0052138 -0 0.00521377)
(0.00513989 -0.00226245 -0 0.00513986 -0 0.00513987)
(0.00513948 -0.00226195 -0 0.00513942 -0 0.00513945)
(0.00513661 -0.00226203 -0 0.00513665 -0 0.00513663)
(0.00514029 -0.0022703 -0 0.00514035 -0 0.00514032)
(0.00506368 -0.00222428 -0 0.00506364 -0 0.00506366)
(0.00506367 -0.00222397 -0 0.0050636 -0 0.00506363)
(0.0050606 -0.00222396 -0 0.00506063 -0 0.00506061)
(0.00506442 -0.00223252 -0 0.0050645 -0 0.00506446)
(0.00498538 -0.00218532 -0 0.00498535 -0 0.00498537)
(0.00498557 -0.00218506 -0 0.00498548 -0 0.00498552)
(0.00498244 -0.00218505 -0 0.00498247 -0 0.00498246)
(0.00498631 -0.00219382 -0 0.00498639 -0 0.00498635)
(0.00490501 -0.00214558 -0 0.00490498 -0 0.00490499)
(0.00490519 -0.0021452 -0 0.0049051 -0 0.00490514)
(0.0049022 -0.0021453 -0 0.00490223 -0 0.00490222)
(0.00490603 -0.00215426 -0 0.00490612 -0 0.00490607)
(0.00482258 -0.00210505 -0 0.00482256 -0 0.00482257)
(0.00482268 -0.00210444 -0 0.00482258 -0 0.00482263)
(0.00481992 -0.00210471 -0 0.00481995 -0 0.00481993)
(0.00482359 -0.00211379 -0 0.00482368 -0 0.00482364)
(0.00473821 -0.00206371 -0 0.00473819 -0 0.0047382)
(0.00473829 -0.00206289 -0 0.0047382 -0 0.00473824)
(0.00473561 -0.00206329 -0 0.00473563 -0 0.00473562)
(0.00473891 -0.00207237 -0 0.00473901 -0 0.00473896)
(0.00465189 -0.00202136 -0 0.00465187 -0 0.00465188)
(0.004652 -0.0020208 -0 0.00465192 -0 0.00465196)
(0.00464933 -0.00202093 -0 0.00464935 -0 0.00464934)
(0.00465248 -0.00203026 -0 0.00465256 -0 0.00465252)
(0.00456368 -0.00197835 -0 0.00456366 -0 0.00456367)
(0.00456381 -0.00197764 -0 0.00456374 -0 0.00456377)
(0.00456113 -0.00197796 -0 0.00456115 -0 0.00456114)
(0.00456421 -0.0019873 -0 0.00456427 -0 0.00456424)
(0.00447362 -0.00193467 -0 0.0044736 -0 0.00447361)
(0.00447374 -0.00193359 -0 0.00447369 -0 0.00447371)
(0.00447107 -0.00193429 -0 0.00447109 -0 0.00447108)
(0.0044741 -0.00194348 -0 0.00447414 -0 0.00447412)
(0.00438173 -0.00188984 -0 0.0043817 -0 0.00438171)
(0.00438184 -0.00188905 -0 0.00438181 -0 0.00438183)
(0.00437918 -0.00188944 -0 0.0043792 -0 0.00437919)
(0.00438217 -0.00189894 -0 0.00438219 -0 0.00438218)
(0.00428803 -0.0018442 -0 0.004288 -0 0.00428802)
(0.00428815 -0.00184371 -0 0.00428815 -0 0.00428815)
(0.0042855 -0.00184399 -0 0.00428553 -0 0.00428551)
(0.00428845 -0.00185342 -0 0.00428845 -0 0.00428845)
(0.00419257 -0.00179787 -0 0.00419255 -0 0.00419256)
(0.00419271 -0.00179709 -0 0.00419271 -0 0.00419271)
(0.00419008 -0.00179781 -0 0.0041901 -0 0.00419009)
(0.00419297 -0.00180711 -0 0.00419297 -0 0.00419297)
(0.00409539 -0.00175071 -0 0.00409539 -0 0.00409539)
(0.00409554 -0.00175001 -0 0.00409555 -0 0.00409554)
(0.00409296 -0.00175067 -0 0.00409297 -0 0.00409296)
(0.00409578 -0.00175995 -0 0.00409578 -0 0.00409578)
(0.00399653 -0.00170276 -0 0.00399656 -0 0.00399655)
(0.00399671 -0.00170204 -0 0.00399671 -0 0.00399671)
(0.00399418 -0.00170268 -0 0.00399415 -0 0.00399417)
(0.00399692 -0.00171193 -0 0.00399692 -0 0.00399692)
(0.00389604 -0.00165403 -0 0.00389611 -0 0.00389607)
(0.00389624 -0.00165327 -0 0.00389624 -0 0.00389624)
(0.00389377 -0.00165381 -0 0.00389371 -0 0.00389374)
(0.00389644 -0.00166305 -0 0.00389643 -0 0.00389643)
(0.00379396 -0.00160451 -0 0.00379407 -0 0.00379401)
(0.00379419 -0.0016037 -0 0.00379419 -0 0.00379419)
(0.00379178 -0.00160405 -0 0.00379168 -0 0.00379173)
(0.00379437 -0.00161332 -0 0.00379437 -0 0.00379437)
(0.00369036 -0.00155422 -0 0.00369049 -0 0.00369042)
(0.00369061 -0.00155334 -0 0.00369061 -0 0.00369061)
(0.00368825 -0.00155339 -0 0.00368812 -0 0.00368819)
(0.00369077 -0.00156273 -0 0.00369077 -0 0.00369077)
(0.00358528 -0.00150315 -0 0.00358541 -0 0.00358535)
(0.00358557 -0.0015025 -0 0.00358558 -0 0.00358558)
(0.00358323 -0.00150174 -0 0.00358309 -0 0.00358316)
(0.0035857 -0.00151131 -0 0.00358569 -0 0.0035857)
(0.0034788 -0.00145127 -0 0.00347891 -0 0.00347886)
(0.00347913 -0.00145046 -0 0.00347913 -0 0.00347913)
(0.00347678 -0.00144944 -0 0.00347667 -0 0.00347672)
(0.00347921 -0.00145906 -0 0.00347921 -0 0.00347921)
(0.00337099 -0.00139858 -0 0.00337106 -0 0.00337103)
(0.00337135 -0.00139774 -0 0.00337135 -0 0.00337135)
(0.00336901 -0.00139657 -0 0.00336893 -0 0.00336897)
(0.00337139 -0.00140594 -0 0.00337139 -0 0.00337139)
(0.00326194 -0.00134529 -0 0.00326197 -0 0.00326196)
(0.00326232 -0.00134416 -0 0.00326231 -0 0.00326232)
(0.00326 -0.00134293 -0 0.00325996 -0 0.00325998)
(0.00326233 -0.00135211 -0 0.00326234 -0 0.00326233)
(0.00315176 -0.00129087 -0 0.00315176 -0 0.00315176)
(0.00315215 -0.00128979 -0 0.00315213 -0 0.00315214)
(0.00314984 -0.00128836 -0 0.00314985 -0 0.00314985)
(0.00315216 -0.0012977 -0 0.00315217 -0 0.00315216)
(0.00304057 -0.00123567 -0 0.00304055 -0 0.00304056)
(0.00304095 -0.0012345 -0 0.00304095 -0 0.00304095)
(0.00303865 -0.00123309 -0 0.00303867 -0 0.00303866)
(0.00304103 -0.00124258 -0 0.00304103 -0 0.00304103)
(0.00292852 -0.00117983 -0 0.00292851 -0 0.00292851)
(0.00292896 -0.00117865 -0 0.00292898 -0 0.00292897)
(0.00292655 -0.00117728 -0 0.00292655 -0 0.00292655)
(0.00292915 -0.00118662 -0 0.00292912 -0 0.00292913)
(0.00281572 -0.00112312 -0 0.00281575 -0 0.00281574)
(0.00281648 -0.00112224 -0 0.00281655 -0 0.00281652)
(0.00281364 -0.00112055 -0 0.00281361 -0 0.00281362)
(0.00281681 -0.00112985 -0 0.00281673 -0 0.00281677)
(0.00270236 -0.00106569 -0 0.00270242 -0 0.00270239)
(0.00270318 -0.00106506 -0 0.0027033 -0 0.00270324)
(0.00270017 -0.00106305 -0 0.0027001 -0 0.00270014)
(0.00270345 -0.00107206 -0 0.00270333 -0 0.00270339)
(0.00258862 -0.00100757 -0 0.00258872 -0 0.00258867)
(0.00258897 -0.00100704 -0 0.0025891 -0 0.00258904)
(0.00258645 -0.00100509 -0 0.00258635 -0 0.00258639)
(0.00258938 -0.00101314 -0 0.00258924 -0 0.00258931)
(0.002475 -0.000949181 -0 0.00247511 -0 0.00247506)
(0.00247451 -0.000948625 -0 0.00247461 -0 0.00247456)
(0.00247264 -0.000946549 -0 0.00247253 -0 0.00247258)
(0.00247466 -0.000953206 -0 0.00247456 -0 0.00247461)
(0.00236072 -0.000889642 -0 0.00236081 -0 0.00236077)
(0.00236049 -0.000889343 -0 0.00236054 -0 0.00236052)
(0.00235897 -0.000886731 -0 0.00235887 -0 0.00235892)
(0.00236048 -0.000893341 -0 0.00236043 -0 0.00236045)
(0.00224731 -0.000829777 -0 0.00224737 -0 0.00224734)
(0.00224718 -0.00082948 -0 0.00224718 -0 0.00224718)
(0.0022458 -0.000826677 -0 0.00224574 -0 0.00224577)
(0.00224707 -0.000833046 -0 0.00224707 -0 0.00224707)
(0.00213514 -0.000769511 -0 0.00213517 -0 0.00213515)
(0.00213493 -0.000769111 -0 0.00213491 -0 0.00213492)
(0.00213359 -0.00076587 -0 0.00213356 -0 0.00213357)
(0.00213486 -0.000772584 -0 0.00213488 -0 0.00213487)
(0.00202479 -0.000708792 -0 0.00202479 -0 0.00202479)
(0.00202425 -0.000708279 -0 0.00202423 -0 0.00202424)
(0.00202289 -0.000704922 -0 0.00202289 -0 0.00202289)
(0.00202443 -0.000711744 -0 0.00202445 -0 0.00202444)
(0.00191702 -0.000647756 -0 0.00191699 -0 0.001917)
(0.00191574 -0.000647032 -0 0.00191573 -0 0.00191574)
(0.00191438 -0.000643752 -0 0.00191441 -0 0.00191439)
(0.00191661 -0.000650648 -0 0.00191663 -0 0.00191662)
(0.00181223 -0.000586365 -0 0.00181219 -0 0.00181221)
(0.00181016 -0.000585465 -0 0.00181016 -0 0.00181016)
(0.00180884 -0.000582392 -0 0.00180888 -0 0.00180886)
(0.0018113 -0.000589096 -0 0.0018113 -0 0.0018113)
(0.00171093 -0.000524595 -0 0.00171089 -0 0.00171091)
(0.00170848 -0.000523751 -0 0.00170849 -0 0.00170849)
(0.0017072 -0.000520923 -0 0.00170725 -0 0.00170722)
(0.00170969 -0.000527296 -0 0.00170969 -0 0.00170969)
(0.00161438 -0.000462655 -0 0.00161433 -0 0.00161436)
(0.00161178 -0.000462146 -0 0.0016118 -0 0.00161179)
(0.00161054 -0.000459363 -0 0.00161058 -0 0.00161056)
(0.00161299 -0.000465245 -0 0.00161298 -0 0.00161298)
(0.00152385 -0.000399935 -0 0.0015238 -0 0.00152382)
(0.0015213 -0.000400298 -0 0.00152131 -0 0.0015213)
(0.00152007 -0.000397586 -0 0.00152012 -0 0.0015201)
(0.00152248 -0.000403154 -0 0.00152247 -0 0.00152247)
(0.00144087 -0.000338048 -0 0.00144082 -0 0.00144084)
(0.00143851 -0.000338648 -0 0.00143851 -0 0.00143851)
(0.00143728 -0.000336099 -0 0.00143733 -0 0.0014373)
(0.00143965 -0.000341255 -0 0.00143965 -0 0.00143965)
(0.00136712 -0.000276077 -0 0.00136707 -0 0.00136709)
(0.00136517 -0.000277371 -0 0.00136516 -0 0.00136517)
(0.00136385 -0.000274864 -0 0.0013639 -0 0.00136387)
(0.00136625 -0.000279784 -0 0.00136626 -0 0.00136626)
(0.00130433 -0.000214454 -0 0.00130429 -0 0.00130431)
(0.00130322 -0.000216258 -0 0.00130322 -0 0.00130322)
(0.00130159 -0.000213509 -0 0.00130163 -0 0.00130161)
(0.0013042 -0.000218789 -0 0.00130421 -0 0.0013042)
(0.00125512 -0.000153659 -0 0.00125511 -0 0.00125511)
(0.00125459 -0.000155426 -0 0.00125459 -0 0.00125459)
(0.00125259 -0.000153992 -0 0.0012526 -0 0.00125259)
(0.00125531 -0.00015722 -0 0.0012553 -0 0.00125531)
(0.00122036 -9.38086e-05 -0 0.00122038 -0 0.00122037)
(0.00122132 -9.378e-05 -0 0.00122135 -0 0.00122133)
(0.00121844 -9.36567e-05 -0 0.00121842 -0 0.00121843)
(0.00122136 -9.57892e-05 -0 0.00122134 -0 0.00122135)
(0.00120238 -3.18107e-05 -0 0.00120242 -0 0.0012024)
(0.00120362 -3.19573e-05 -0 0.00120367 -0 0.00120365)
(0.00120074 -3.18163e-05 -0 0.0012007 -0 0.00120072)
(0.00120376 -3.26019e-05 -0 0.00120371 -0 0.00120373)
)
;

boundaryField
{
    inlet
    {
        type            cyclic;
    }
    outlet
    {
        type            cyclic;
    }
    fixedWalls-bottom
    {
        type            kqRWallFunction;
        value           nonuniform List<symmTensor> 4((6.93612e-08 -0 -0 6.93612e-08 -0 6.93612e-08) (6.94584e-08 -0 -0 6.94584e-08 -0 6.94584e-08) (6.95186e-08 -0 -0 6.95186e-08 -0 6.95186e-08) (6.95062e-08 -0 -0 6.95062e-08 -0 6.95062e-08));
    }
    fixedWalls-top
    {
        type            symmetry;
    }
    frontAndBack
    {
        type            empty;
    }
}


// ************************************************************************* //
