/*--------------------------------*- C++ -*----------------------------------*\
  =========                 |
  \\      /  F ield         | OpenFOAM: The Open Source CFD Toolbox
   \\    /   O peration     | Website:  https://openfoam.org
    \\  /    A nd           | Version:  10
     \\/     M anipulation  |
\*---------------------------------------------------------------------------*/
FoamFile
{
    format      ascii;
    class       volVectorField;
    location    "2500";
    object      U;
}
// * * * * * * * * * * * * * * * * * * * * * * * * * * * * * * * * * * * * * //

dimensions      [0 1 -1 0 0 0 0];

internalField   nonuniform List<vector> 
400
(
(0.0208148 5.02269e-11 0)
(0.0208162 -1.94867e-09 0)
(0.0208178 -5.1194e-10 0)
(0.0208177 1.88768e-09 0)
(0.0625423 1.01811e-08 0)
(0.0625467 -3.01811e-08 0)
(0.0625517 -1.42307e-08 0)
(0.0625512 3.00641e-08 0)
(0.104654 3.87586e-08 0)
(0.104662 -8.85155e-08 0)
(0.10467 -4.1615e-08 0)
(0.104669 8.81862e-08 0)
(0.147134 8.15773e-08 0)
(0.147144 -1.80049e-07 0)
(0.147156 -8.51289e-08 0)
(0.147155 1.79538e-07 0)
(0.189916 1.40697e-07 0)
(0.18993 -3.06395e-07 0)
(0.189946 -1.44127e-07 0)
(0.189944 3.05712e-07 0)
(0.232835 2.14093e-07 0)
(0.232853 -4.69717e-07 0)
(0.232871 -2.17381e-07 0)
(0.232869 4.68866e-07 0)
(0.275553 2.98581e-07 0)
(0.275575 -6.70499e-07 0)
(0.275596 -3.01767e-07 0)
(0.275592 6.6949e-07 0)
(0.317551 3.8818e-07 0)
(0.317577 -9.04182e-07 0)
(0.317599 -3.91311e-07 0)
(0.317594 9.03017e-07 0)
(0.358207 4.74092e-07 0)
(0.358235 -1.15816e-06 0)
(0.358257 -4.77189e-07 0)
(0.35825 1.15685e-06 0)
(0.396953 5.45938e-07 0)
(0.396979 -1.41182e-06 0)
(0.396999 -5.49004e-07 0)
(0.396991 1.41037e-06 0)
(0.433403 5.94096e-07 0)
(0.433426 -1.64036e-06 0)
(0.433441 -5.97124e-07 0)
(0.433432 1.63878e-06 0)
(0.46739 6.12012e-07 0)
(0.467407 -1.82016e-06 0)
(0.467418 -6.14997e-07 0)
(0.467407 1.81846e-06 0)
(0.498922 5.97863e-07 0)
(0.49893 -1.93308e-06 0)
(0.498937 -6.00796e-07 0)
(0.498925 1.93126e-06 0)
(0.52811 5.53903e-07 0)
(0.528109 -1.9726e-06 0)
(0.528112 -5.5679e-07 0)
(0.528099 1.97067e-06 0)
(0.555136 4.77114e-07 0)
(0.555133 -1.97448e-06 0)
(0.555133 -4.79948e-07 0)
(0.555118 1.97246e-06 0)
(0.580234 3.74846e-07 0)
(0.580235 -1.95296e-06 0)
(0.580232 -3.77614e-07 0)
(0.580214 1.95085e-06 0)
(0.6036 2.49261e-07 0)
(0.603604 -1.94369e-06 0)
(0.6036 -2.51964e-07 0)
(0.603581 1.9415e-06 0)
(0.625378 1.11315e-07 0)
(0.625384 -1.94917e-06 0)
(0.62538 -1.13956e-07 0)
(0.62536 1.9469e-06 0)
(0.645699 -2.8046e-08 0)
(0.645706 -1.9665e-06 0)
(0.645703 2.54687e-08 0)
(0.645683 1.96417e-06 0)
(0.664687 -1.6009e-07 0)
(0.664695 -1.99342e-06 0)
(0.664692 1.57576e-07 0)
(0.664674 1.99102e-06 0)
(0.68246 -2.78689e-07 0)
(0.682468 -2.02767e-06 0)
(0.682466 2.76239e-07 0)
(0.68245 2.0252e-06 0)
(0.699126 -3.80323e-07 0)
(0.699133 -2.06649e-06 0)
(0.699132 3.77935e-07 0)
(0.699118 2.06396e-06 0)
(0.714786 -4.63836e-07 0)
(0.714794 -2.10648e-06 0)
(0.714792 4.61511e-07 0)
(0.714782 2.1039e-06 0)
(0.729535 -5.30024e-07 0)
(0.729542 -2.1438e-06 0)
(0.729541 5.2776e-07 0)
(0.729533 2.14116e-06 0)
(0.743458 -5.81224e-07 0)
(0.743464 -2.17475e-06 0)
(0.743462 5.79021e-07 0)
(0.743457 2.17207e-06 0)
(0.75663 -6.20815e-07 0)
(0.756636 -2.19578e-06 0)
(0.756633 6.18672e-07 0)
(0.756631 2.19305e-06 0)
(0.769124 -6.53068e-07 0)
(0.769129 -2.20374e-06 0)
(0.769124 6.50984e-07 0)
(0.769124 2.20096e-06 0)
(0.781 -6.8274e-07 0)
(0.781005 -2.19592e-06 0)
(0.780998 6.80715e-07 0)
(0.781001 2.19311e-06 0)
(0.792317 -7.1462e-07 0)
(0.792321 -2.1702e-06 0)
(0.792311 7.12653e-07 0)
(0.792316 2.16735e-06 0)
(0.803123 -7.52438e-07 0)
(0.803127 -2.1248e-06 0)
(0.803115 7.50529e-07 0)
(0.803121 2.1219e-06 0)
(0.813465 -7.95993e-07 0)
(0.813468 -2.05677e-06 0)
(0.813454 7.94141e-07 0)
(0.813461 2.05384e-06 0)
(0.823383 -8.3874e-07 0)
(0.823383 -1.96182e-06 0)
(0.823367 8.36943e-07 0)
(0.823378 1.95887e-06 0)
(0.832913 -8.66581e-07 0)
(0.83291 -1.83569e-06 0)
(0.832894 8.64837e-07 0)
(0.832908 1.83271e-06 0)
(0.842095 -8.65194e-07 0)
(0.842089 -1.68222e-06 0)
(0.842073 8.63509e-07 0)
(0.842092 1.67918e-06 0)
(0.850977 -8.39032e-07 0)
(0.850971 -1.52505e-06 0)
(0.850956 8.37407e-07 0)
(0.850977 1.52198e-06 0)
(0.859617 -7.86759e-07 0)
(0.859612 -1.37199e-06 0)
(0.859599 7.85185e-07 0)
(0.859619 1.3689e-06 0)
(0.868054 -7.25819e-07 0)
(0.868049 -1.24155e-06 0)
(0.868038 7.243e-07 0)
(0.868058 1.23844e-06 0)
(0.876308 -6.58485e-07 0)
(0.876304 -1.12709e-06 0)
(0.876294 6.57023e-07 0)
(0.876313 1.12396e-06 0)
(0.884398 -5.86885e-07 0)
(0.884395 -1.02253e-06 0)
(0.884385 5.85478e-07 0)
(0.884404 1.01937e-06 0)
(0.892339 -5.11693e-07 0)
(0.892336 -9.2434e-07 0)
(0.892327 5.10342e-07 0)
(0.892345 9.21151e-07 0)
(0.900146 -4.34173e-07 0)
(0.900142 -8.30602e-07 0)
(0.900134 4.32876e-07 0)
(0.900152 8.27389e-07 0)
(0.90783 -3.55925e-07 0)
(0.907827 -7.40041e-07 0)
(0.907819 3.54685e-07 0)
(0.907836 7.36805e-07 0)
(0.915404 -2.78812e-07 0)
(0.9154 -6.5258e-07 0)
(0.915393 2.77625e-07 0)
(0.915409 6.49321e-07 0)
(0.922877 -2.04973e-07 0)
(0.922874 -5.68399e-07 0)
(0.922867 2.03841e-07 0)
(0.922883 5.65119e-07 0)
(0.93026 -1.35529e-07 0)
(0.930257 -4.88592e-07 0)
(0.930251 1.34451e-07 0)
(0.930265 4.85293e-07 0)
(0.937561 -7.03751e-08 0)
(0.937559 -4.13941e-07 0)
(0.937553 6.93546e-08 0)
(0.937566 4.10623e-07 0)
(0.94479 -1.03603e-08 0)
(0.944787 -3.45314e-07 0)
(0.944782 9.39467e-09 0)
(0.944794 3.41977e-07 0)
(0.951952 4.41427e-08 0)
(0.95195 -2.82741e-07 0)
(0.951945 -4.50504e-08 0)
(0.951956 2.79388e-07 0)
(0.959055 9.12833e-08 0)
(0.959054 -2.24957e-07 0)
(0.959049 -9.21339e-08 0)
(0.959058 2.21589e-07 0)
(0.966104 1.31098e-07 0)
(0.966102 -1.69976e-07 0)
(0.966098 -1.31888e-07 0)
(0.966106 1.66597e-07 0)
(0.973103 1.64878e-07 0)
(0.973101 -1.15701e-07 0)
(0.973097 -1.65611e-07 0)
(0.973104 1.12307e-07 0)
(0.980055 1.96063e-07 0)
(0.980053 -6.14859e-08 0)
(0.98005 -1.96736e-07 0)
(0.980056 5.80814e-08 0)
(0.986965 2.27477e-07 0)
(0.986962 -8.92382e-09 0)
(0.98696 -2.28092e-07 0)
(0.986965 5.50747e-09 0)
(0.993834 2.58958e-07 0)
(0.993831 3.89348e-08 0)
(0.993829 -2.59515e-07 0)
(0.993835 -4.23605e-08 0)
(1.00067 2.9146e-07 0)
(1.00066 8.1501e-08 0)
(1.00066 -2.91962e-07 0)
(1.00067 -8.49352e-08 0)
(1.00746 3.22174e-07 0)
(1.00746 1.19704e-07 0)
(1.00746 -3.22619e-07 0)
(1.00746 -1.23143e-07 0)
(1.01422 3.51709e-07 0)
(1.01422 1.57606e-07 0)
(1.01422 -3.52099e-07 0)
(1.01422 -1.61051e-07 0)
(1.02095 3.79837e-07 0)
(1.02095 2.00018e-07 0)
(1.02095 -3.8017e-07 0)
(1.02095 -2.03466e-07 0)
(1.02765 4.06145e-07 0)
(1.02765 2.50482e-07 0)
(1.02765 -4.06423e-07 0)
(1.02765 -2.53936e-07 0)
(1.03432 4.31069e-07 0)
(1.03432 3.11059e-07 0)
(1.03432 -4.3129e-07 0)
(1.03432 -3.14513e-07 0)
(1.04096 4.54164e-07 0)
(1.04096 3.80477e-07 0)
(1.04095 -4.54328e-07 0)
(1.04096 -3.8393e-07 0)
(1.04757 4.74646e-07 0)
(1.04757 4.56134e-07 0)
(1.04756 -4.7475e-07 0)
(1.04757 -4.59581e-07 0)
(1.05415 4.91619e-07 0)
(1.05415 5.32732e-07 0)
(1.05415 -4.91665e-07 0)
(1.05415 -5.36171e-07 0)
(1.06071 5.09168e-07 0)
(1.0607 6.04811e-07 0)
(1.0607 -5.09154e-07 0)
(1.0607 -6.0824e-07 0)
(1.06723 5.26583e-07 0)
(1.06723 6.66785e-07 0)
(1.06723 -5.26512e-07 0)
(1.06723 -6.70205e-07 0)
(1.07372 5.44922e-07 0)
(1.07372 7.13061e-07 0)
(1.07372 -5.44792e-07 0)
(1.07372 -7.16465e-07 0)
(1.08019 5.66508e-07 0)
(1.08019 7.40473e-07 0)
(1.08019 -5.66324e-07 0)
(1.08019 -7.43867e-07 0)
(1.08663 5.92715e-07 0)
(1.08662 7.52604e-07 0)
(1.08663 -5.92478e-07 0)
(1.08663 -7.55978e-07 0)
(1.09303 6.15379e-07 0)
(1.09303 7.54278e-07 0)
(1.09303 -6.15088e-07 0)
(1.09303 -7.57628e-07 0)
(1.09941 6.30891e-07 0)
(1.09941 7.52346e-07 0)
(1.09941 -6.30546e-07 0)
(1.09941 -7.55671e-07 0)
(1.10575 6.2126e-07 0)
(1.10575 7.50894e-07 0)
(1.10575 -6.20865e-07 0)
(1.10575 -7.54192e-07 0)
(1.11206 5.77539e-07 0)
(1.11206 7.49892e-07 0)
(1.11206 -5.77094e-07 0)
(1.11206 -7.53157e-07 0)
(1.11833 4.94845e-07 0)
(1.11834 7.49471e-07 0)
(1.11833 -4.94354e-07 0)
(1.11833 -7.52703e-07 0)
(1.12457 3.76287e-07 0)
(1.12457 7.4903e-07 0)
(1.12457 -3.75755e-07 0)
(1.12456 -7.52225e-07 0)
(1.13076 2.41404e-07 0)
(1.13077 7.44669e-07 0)
(1.13076 -2.40832e-07 0)
(1.13076 -7.47836e-07 0)
(1.13692 1.07306e-07 0)
(1.13692 7.37837e-07 0)
(1.13692 -1.06685e-07 0)
(1.13691 -7.40963e-07 0)
(1.14303 4.58283e-09 0)
(1.14303 7.34723e-07 0)
(1.14303 -3.92952e-09 0)
(1.14302 -7.37797e-07 0)
(1.14909 -5.29776e-08 0)
(1.14909 7.39059e-07 0)
(1.14909 5.36613e-08 0)
(1.14908 -7.42091e-07 0)
(1.15509 -6.31779e-08 0)
(1.15509 7.56757e-07 0)
(1.15509 6.38934e-08 0)
(1.15509 -7.5974e-07 0)
(1.16104 -4.50448e-08 0)
(1.16104 7.74463e-07 0)
(1.16104 4.57943e-08 0)
(1.16104 -7.77379e-07 0)
(1.16692 -2.53392e-08 0)
(1.16692 7.69438e-07 0)
(1.16693 2.61078e-08 0)
(1.16692 -7.72273e-07 0)
(1.17273 -3.33706e-08 0)
(1.17274 7.09437e-07 0)
(1.17274 3.41475e-08 0)
(1.17273 -7.12198e-07 0)
(1.17847 -9.42018e-08 0)
(1.17847 5.80076e-07 0)
(1.17848 9.50186e-08 0)
(1.17847 -5.8277e-07 0)
(1.18412 -2.09187e-07 0)
(1.18413 4.05877e-07 0)
(1.18413 2.10061e-07 0)
(1.18412 -4.08505e-07 0)
(1.18967 -3.53935e-07 0)
(1.18968 2.34818e-07 0)
(1.18968 3.54812e-07 0)
(1.18967 -2.37338e-07 0)
(1.19512 -5.09388e-07 0)
(1.19513 1.19954e-07 0)
(1.19512 5.10289e-07 0)
(1.19512 -1.2235e-07 0)
(1.20044 -6.27601e-07 0)
(1.20045 9.16014e-08 0)
(1.20044 6.28532e-07 0)
(1.20044 -9.3893e-08 0)
(1.20563 -6.9765e-07 0)
(1.20563 1.15752e-07 0)
(1.20562 6.98607e-07 0)
(1.20562 -1.17959e-07 0)
(1.21065 -7.15106e-07 0)
(1.21065 1.65257e-07 0)
(1.21065 7.1607e-07 0)
(1.21065 -1.6735e-07 0)
(1.21549 -6.83944e-07 0)
(1.21549 2.06896e-07 0)
(1.21549 6.84889e-07 0)
(1.21549 -2.08858e-07 0)
(1.22012 -6.15942e-07 0)
(1.22012 2.28947e-07 0)
(1.22012 6.16859e-07 0)
(1.22012 -2.30767e-07 0)
(1.22451 -5.2532e-07 0)
(1.22451 2.27888e-07 0)
(1.22452 5.26206e-07 0)
(1.22452 -2.29549e-07 0)
(1.22863 -4.14492e-07 0)
(1.22863 2.03795e-07 0)
(1.22863 4.15285e-07 0)
(1.22863 -2.05305e-07 0)
(1.23243 -3.01222e-07 0)
(1.23243 1.89579e-07 0)
(1.23243 3.01979e-07 0)
(1.23243 -1.90877e-07 0)
(1.23587 -1.76687e-07 0)
(1.23586 1.81314e-07 0)
(1.23587 1.77413e-07 0)
(1.23587 -1.82468e-07 0)
(1.23888 -4.82007e-08 0)
(1.23888 2.05365e-07 0)
(1.23888 4.88878e-08 0)
(1.23889 -2.06328e-07 0)
(1.24142 6.50816e-08 0)
(1.24141 2.13465e-07 0)
(1.24142 -6.45273e-08 0)
(1.24142 -2.1439e-07 0)
(1.24341 1.63314e-07 0)
(1.2434 2.55939e-07 0)
(1.24341 -1.62761e-07 0)
(1.2434 -2.56299e-07 0)
(1.24479 1.46321e-07 0)
(1.24478 1.95027e-07 0)
(1.24479 -1.45982e-07 0)
(1.24478 -1.95341e-07 0)
(1.2455 7.67415e-08 0)
(1.2455 8.64856e-08 0)
(1.24551 -7.66287e-08 0)
(1.24549 -8.65567e-08 0)
)
;

boundaryField
{
    inlet
    {
        type            cyclic;
    }
    outlet
    {
        type            cyclic;
    }
    fixedWalls-bottom
    {
        type            noSlip;
    }
    fixedWalls-top
    {
        type            symmetry;
    }
    frontAndBack
    {
        type            empty;
    }
}


// ************************************************************************* //
