/*--------------------------------*- C++ -*----------------------------------*\
  =========                 |
  \\      /  F ield         | OpenFOAM: The Open Source CFD Toolbox
   \\    /   O peration     | Website:  https://openfoam.org
    \\  /    A nd           | Version:  10
     \\/     M anipulation  |
\*---------------------------------------------------------------------------*/
FoamFile
{
    format      ascii;
    class       volScalarField;
    location    "481";
    object      k;
}
// * * * * * * * * * * * * * * * * * * * * * * * * * * * * * * * * * * * * * //

dimensions      [0 2 -2 0 0 0 0];

internalField   nonuniform List<scalar> 
200
(
6.65841e-06
6.65771e-06
6.65703e-06
6.65717e-06
0.000200058
0.000200037
0.000200017
0.000200021
0.00132571
0.00132558
0.00132545
0.00132548
0.00344594
0.00344566
0.00344541
0.00344548
0.00526024
0.00525998
0.00525973
0.00525983
0.00646977
0.00646952
0.00646932
0.0064695
0.00724771
0.00724748
0.00724735
0.00724762
0.00774233
0.0077421
0.00774205
0.00774238
0.00805406
0.00805381
0.00805383
0.00805418
0.00824534
0.0082451
0.00824516
0.0082455
0.00835472
0.00835452
0.00835461
0.00835489
0.00840637
0.00840622
0.00840632
0.00840652
0.0084158
0.0084157
0.0084158
0.0084159
0.00839319
0.00839316
0.00839325
0.00839325
0.00834547
0.0083455
0.00834556
0.00834548
0.0082774
0.00827749
0.00827752
0.00827736
0.00819234
0.00819249
0.0081925
0.00819226
0.00809271
0.00809292
0.0080929
0.00809259
0.00798027
0.00798052
0.00798049
0.00798013
0.00785635
0.00785661
0.00785658
0.00785617
0.00772195
0.00772222
0.00772221
0.00772175
0.00757798
0.00757823
0.00757824
0.00757774
0.00742529
0.00742552
0.00742554
0.00742503
0.00726488
0.00726508
0.00726511
0.00726459
0.00709793
0.0070981
0.00709814
0.00709763
0.00692583
0.00692598
0.00692601
0.00692555
0.00674996
0.00675006
0.00675009
0.00674971
0.00657116
0.00657119
0.00657123
0.00657089
0.00638936
0.00638933
0.00638937
0.00638903
0.00620456
0.00620451
0.00620454
0.00620421
0.0060171
0.00601707
0.00601709
0.00601676
0.00582741
0.00582742
0.00582743
0.00582713
0.00563602
0.00563603
0.00563605
0.00563578
0.00544347
0.00544348
0.00544351
0.00544325
0.00525039
0.00525039
0.00525043
0.00525019
0.0050575
0.00505749
0.00505754
0.00505732
0.00486562
0.00486562
0.00486566
0.00486547
0.00467573
0.00467572
0.00467576
0.0046756
0.00448892
0.00448891
0.00448894
0.00448882
0.00430646
0.00430644
0.00430646
0.00430639
0.0041298
0.00412979
0.00412979
0.00412975
0.00396058
0.0039606
0.00396055
0.00396056
0.00380065
0.00380069
0.00380057
0.00380067
0.00365207
0.003652
0.00365192
0.00365199
0.00351692
0.00351689
0.00351684
0.00351689
0.00339778
0.00339773
0.00339771
0.00339776
0.00329716
0.00329707
0.00329711
0.00329714
0.00321777
0.00321749
0.00321771
0.00321766
0.00316213
0.00316176
0.00316204
0.00316199
0.00313297
0.00313255
0.00313285
0.00313281
)
;

boundaryField
{
    inlet
    {
        type            cyclic;
    }
    outlet
    {
        type            cyclic;
    }
    fixedWalls-bottom
    {
        type            kqRWallFunction;
        value           nonuniform List<scalar> 4(6.65841e-06 6.65771e-06 6.65703e-06 6.65717e-06);
    }
    fixedWalls-top
    {
        type            symmetry;
    }
    frontAndBack
    {
        type            empty;
    }
}


// ************************************************************************* //
