/*--------------------------------*- C++ -*----------------------------------*\
  =========                 |
  \\      /  F ield         | OpenFOAM: The Open Source CFD Toolbox
   \\    /   O peration     | Website:  https://openfoam.org
    \\  /    A nd           | Version:  10
     \\/     M anipulation  |
\*---------------------------------------------------------------------------*/
FoamFile
{
    format      ascii;
    class       volScalarField;
    location    "481";
    object      nut;
}
// * * * * * * * * * * * * * * * * * * * * * * * * * * * * * * * * * * * * * //

dimensions      [0 2 -1 0 0 0 0];

internalField   nonuniform List<scalar> 
200
(
7.71195e-09
7.71114e-09
7.71035e-09
7.71052e-09
1.32146e-06
1.32131e-06
1.32118e-06
1.32121e-06
2.26609e-05
2.26579e-05
2.26556e-05
2.26562e-05
0.000101287
0.000101272
0.000101264
0.000101267
0.000221106
0.000221096
0.000221083
0.000221085
0.000361128
0.000361117
0.000361103
0.000361111
0.000519573
0.000519558
0.000519547
0.000519567
0.000691714
0.000691691
0.000691685
0.000691722
0.000873817
0.00087378
0.00087378
0.000873834
0.00106289
0.00106284
0.00106284
0.00106291
0.00125676
0.00125672
0.00125673
0.00125679
0.00145395
0.00145391
0.00145392
0.00145397
0.00165339
0.00165336
0.00165338
0.0016534
0.00185432
0.00185431
0.00185434
0.00185433
0.00205614
0.00205615
0.00205617
0.00205614
0.00225832
0.00225835
0.00225837
0.00225831
0.00246037
0.00246042
0.00246043
0.00246034
0.00266183
0.00266191
0.00266191
0.00266179
0.00286232
0.00286242
0.00286243
0.00286228
0.00306173
0.00306185
0.00306186
0.00306166
0.00326034
0.00326048
0.0032605
0.00326025
0.00345921
0.00345935
0.00345936
0.00345907
0.00366036
0.00366046
0.00366041
0.00366017
0.00386672
0.00386675
0.00386663
0.00386661
0.00408148
0.00408148
0.00408131
0.00408173
0.00430603
0.00430614
0.00430601
0.00430683
0.00453583
0.00453596
0.00453599
0.0045362
0.00475324
0.00475174
0.00475224
0.00474848
0.0049344
0.00493274
0.00493323
0.00492957
0.00510648
0.00510503
0.00510536
0.00510194
0.00526979
0.00526938
0.00526922
0.00526612
0.00542577
0.00542454
0.00542489
0.00542201
0.00557261
0.00557155
0.00557191
0.00556928
0.0057104
0.00570955
0.0057099
0.00570755
0.00583877
0.00583811
0.00583841
0.00583648
0.0059574
0.00595698
0.0059572
0.00595578
0.00606612
0.00606593
0.00606603
0.00606526
0.00616496
0.00616482
0.00616497
0.00616482
0.00625398
0.00625368
0.00625394
0.00625467
0.00633344
0.00633303
0.00633372
0.00633477
0.00640366
0.00640417
0.00640425
0.00640577
0.00646552
0.00646593
0.00646599
0.0064686
0.0065198
0.0065193
0.00651955
0.00652404
0.0065676
0.00656858
0.00656894
0.00657144
0.00660894
0.00661031
0.00661109
0.00661348
0.0066447
0.00664619
0.00664765
0.00665018
0.00667546
0.00667636
0.00667913
0.00668187
0.00670211
0.00669859
0.00670575
0.00670851
0.00672225
0.00671831
0.00672579
0.00672927
0.00673472
0.00673156
0.00673817
0.00674303
)
;

boundaryField
{
    inlet
    {
        type            cyclic;
    }
    outlet
    {
        type            cyclic;
    }
    fixedWalls-bottom
    {
        type            nutkWallFunction;
        Cmu             0.09;
        kappa           0.41;
        E               9.8;
        value           uniform 0;
    }
    fixedWalls-top
    {
        type            symmetry;
    }
    frontAndBack
    {
        type            empty;
    }
}


// ************************************************************************* //
