/*--------------------------------*- C++ -*----------------------------------*\
  =========                 |
  \\      /  F ield         | OpenFOAM: The Open Source CFD Toolbox
   \\    /   O peration     | Website:  https://openfoam.org
    \\  /    A nd           | Version:  10
     \\/     M anipulation  |
\*---------------------------------------------------------------------------*/
FoamFile
{
    format      ascii;
    class       volScalarField;
    location    "481";
    object      omega;
}
// * * * * * * * * * * * * * * * * * * * * * * * * * * * * * * * * * * * * * //

dimensions      [0 0 -1 0 0 0 0];

internalField   nonuniform List<scalar> 
200
(
863.389
863.389
863.389
863.389
151.393
151.393
151.393
151.393
58.5023
58.5041
58.5044
58.5041
34.0214
34.0236
34.024
34.0238
23.3191
23.3205
23.3206
23.3207
17.2807
17.2817
17.2816
17.2812
13.446
13.4464
13.4462
13.4454
10.8366
10.8368
10.8364
10.8354
8.97222
8.97231
8.97177
8.97069
7.58769
7.58769
7.58712
7.58614
6.52626
6.5262
6.5255
6.52493
5.69033
5.69026
5.68946
5.68939
5.0167
5.01663
5.01606
5.01617
4.46336
4.46325
4.46289
4.46313
4.00119
4.0011
4.00095
4.00132
3.60971
3.60976
3.6097
3.61025
3.27424
3.27425
3.27439
3.27512
2.98387
2.98358
2.98419
2.98486
2.73009
2.72982
2.73052
2.73131
2.50667
2.50642
2.50711
2.5081
2.30866
2.30846
2.30897
2.31026
2.13207
2.1321
2.13221
2.13382
1.97369
1.9737
1.97419
1.97547
1.83098
1.83143
1.83136
1.83291
1.70238
1.70234
1.7026
1.70382
1.58542
1.58532
1.58572
1.58672
1.47914
1.47918
1.47936
1.48038
1.38246
1.3829
1.38277
1.38379
1.29486
1.29529
1.29517
1.29606
1.21504
1.21537
1.2153
1.21605
1.14181
1.14189
1.14193
1.14254
1.07402
1.07427
1.0742
1.07472
1.01138
1.01157
1.01151
1.01194
0.953257
0.953399
0.953346
0.953693
0.89923
0.89933
0.89929
0.899548
0.848943
0.849003
0.848979
0.849145
0.802098
0.802122
0.802117
0.802187
0.758436
0.758453
0.758441
0.758433
0.717769
0.717803
0.717778
0.717675
0.679956
0.679998
0.679926
0.679802
0.644912
0.644861
0.644852
0.644693
0.612569
0.612533
0.61252
0.612275
0.582939
0.582991
0.582949
0.582565
0.556073
0.55598
0.555937
0.555737
0.532146
0.53203
0.531961
0.531776
0.511351
0.51123
0.511115
0.510927
0.493923
0.493842
0.493643
0.493446
0.480112
0.480324
0.479843
0.479639
0.470397
0.470618
0.470137
0.469886
0.465197
0.465353
0.464942
0.4646
)
;

boundaryField
{
    inlet
    {
        type            cyclic;
    }
    outlet
    {
        type            cyclic;
    }
    fixedWalls-bottom
    {
        beta1           0.075;
        blended         0;
        type            omegaWallFunction;
        value           nonuniform List<scalar> 4(863.389 863.389 863.389 863.389);
    }
    fixedWalls-top
    {
        type            symmetry;
    }
    frontAndBack
    {
        type            empty;
    }
}


// ************************************************************************* //
