/*--------------------------------*- C++ -*----------------------------------*\
  =========                 |
  \\      /  F ield         | OpenFOAM: The Open Source CFD Toolbox
   \\    /   O peration     | Website:  https://openfoam.org
    \\  /    A nd           | Version:  10
     \\/     M anipulation  |
\*---------------------------------------------------------------------------*/
FoamFile
{
    format      ascii;
    class       volScalarField;
    location    "481";
    object      p;
}
// * * * * * * * * * * * * * * * * * * * * * * * * * * * * * * * * * * * * * //

dimensions      [0 2 -2 0 0 0 0];

internalField   nonuniform List<scalar> 
200
(
2.96818e-12
2.80847e-07
-8.85257e-08
-3.71274e-07
-4.40854e-10
2.81352e-07
-8.80647e-08
-3.71786e-07
-9.52453e-10
2.8121e-07
-8.75474e-08
-3.71644e-07
-1.12474e-09
2.78701e-07
-8.73682e-08
-3.69136e-07
-8.88606e-10
2.74598e-07
-8.76043e-08
-3.65035e-07
-9.38388e-10
2.70731e-07
-8.75568e-08
-3.61172e-07
-2.3061e-09
2.67161e-07
-8.61892e-08
-3.57604e-07
-5.58011e-09
2.63545e-07
-8.29143e-08
-3.53989e-07
-1.06171e-08
2.59422e-07
-7.78729e-08
-3.49868e-07
-1.67835e-08
2.54617e-07
-7.17024e-08
-3.45064e-07
-2.32835e-08
2.49372e-07
-6.5195e-08
-3.39821e-07
-2.9519e-08
2.44109e-07
-5.89533e-08
-3.3456e-07
-3.50879e-08
2.39071e-07
-5.33752e-08
-3.29522e-07
-3.97988e-08
2.34258e-07
-4.86563e-08
-3.24711e-07
-4.35436e-08
2.2952e-07
-4.49011e-08
-3.19973e-07
-4.63349e-08
2.24706e-07
-4.21003e-08
-3.15161e-07
-4.82761e-08
2.19773e-07
-4.0149e-08
-3.10227e-07
-4.95251e-08
2.14759e-07
-3.88903e-08
-3.05214e-07
-5.02504e-08
2.09781e-07
-3.81568e-08
-3.00235e-07
-5.0473e-08
2.04998e-07
-3.79251e-08
-2.95454e-07
-4.99299e-08
2.00438e-07
-3.84629e-08
-2.90891e-07
-4.82386e-08
1.95487e-07
-4.01466e-08
-2.8594e-07
-4.5784e-08
1.88711e-07
-4.25985e-08
-2.7916e-07
-4.52224e-08
1.78674e-07
-4.31541e-08
-2.69124e-07
-5.20108e-08
1.65933e-07
-3.63654e-08
-2.56378e-07
-6.96141e-08
1.53804e-07
-1.87594e-08
-2.44247e-07
-8.5877e-08
1.43503e-07
-2.50218e-09
-2.33943e-07
-6.766e-08
1.25616e-07
-2.07252e-08
-2.16059e-07
-1.93327e-08
9.71572e-08
-6.90579e-08
-1.87598e-07
2.84844e-08
6.75943e-08
-1.1688e-07
-1.58027e-07
7.25077e-08
4.34632e-08
-1.60912e-07
-1.33886e-07
1.10398e-07
2.17612e-08
-1.98819e-07
-1.12172e-07
1.40395e-07
-7.13003e-10
-2.28832e-07
-8.96927e-08
1.65525e-07
-2.08178e-08
-2.53987e-07
-6.95766e-08
1.86038e-07
-3.83221e-08
-2.7452e-07
-5.20691e-08
2.0129e-07
-5.39067e-08
-2.89802e-07
-3.64722e-08
2.10658e-07
-6.79881e-08
-2.99192e-07
-2.23871e-08
2.12935e-07
-8.11163e-08
-3.01499e-07
-9.24683e-09
2.06327e-07
-9.41273e-08
-2.94915e-07
3.77002e-09
1.92089e-07
-1.05582e-07
-2.80706e-07
1.52381e-08
1.75934e-07
-1.13524e-07
-2.64575e-07
2.31911e-08
1.56157e-07
-1.20856e-07
-2.44823e-07
3.05382e-08
1.26429e-07
-1.3176e-07
-2.15118e-07
4.14579e-08
9.81546e-08
-1.38839e-07
-1.86866e-07
4.85535e-08
7.86185e-08
-1.37038e-07
-1.67351e-07
4.6766e-08
6.02298e-08
-1.30919e-07
-1.48984e-07
4.06591e-08
3.8828e-08
-1.226e-07
-1.27599e-07
3.23527e-08
1.17065e-08
-1.15177e-07
-1.00489e-07
2.49439e-08
-1.43358e-08
-1.10349e-07
-7.44508e-08
2.01276e-08
-3.08715e-08
-1.07626e-07
-5.79123e-08
1.74114e-08
)
;

boundaryField
{
    inlet
    {
        type            cyclic;
    }
    outlet
    {
        type            cyclic;
    }
    fixedWalls-bottom
    {
        type            zeroGradient;
    }
    fixedWalls-top
    {
        type            symmetry;
    }
    frontAndBack
    {
        type            empty;
    }
}


// ************************************************************************* //
