/*--------------------------------*- C++ -*----------------------------------*\
  =========                 |
  \\      /  F ield         | OpenFOAM: The Open Source CFD Toolbox
   \\    /   O peration     | Website:  https://openfoam.org
    \\  /    A nd           | Version:  10
     \\/     M anipulation  |
\*---------------------------------------------------------------------------*/
FoamFile
{
    format      ascii;
    class       surfaceScalarField;
    location    "481";
    object      phi;
}
// * * * * * * * * * * * * * * * * * * * * * * * * * * * * * * * * * * * * * //

dimensions      [0 3 -1 0 0 0 0];

internalField   nonuniform List<scalar> 
346
(
0.00127089
-8.4678e-09
0.00127088
6.16664e-09
0.00127088
8.23571e-09
-6.11825e-09
0.00392765
-3.28242e-08
0.00392763
3.09485e-08
0.0039276
3.25015e-08
-3.08649e-08
0.00665911
-6.56882e-08
0.00665907
7.07969e-08
0.00665903
6.54189e-08
-7.07098e-08
0.00912546
-8.9467e-08
0.00912544
9.6598e-08
0.00912541
8.9195e-08
-9.65024e-08
0.0111647
-9.53589e-08
0.0111647
1.10137e-07
0.0111647
9.51037e-08
-1.10044e-07
0.0128805
-8.78682e-08
0.0128805
1.2315e-07
0.0128805
8.76406e-08
-1.23062e-07
0.0143844
-7.58943e-08
0.0143844
1.37368e-07
0.0143844
7.56726e-08
-1.37282e-07
0.0157483
-6.59919e-08
0.0157483
1.50615e-07
0.0157483
6.58058e-08
-1.50542e-07
0.0170203
-6.1314e-08
0.0170203
1.60012e-07
0.0170203
6.11274e-08
-1.59936e-07
0.0182326
-6.19751e-08
0.0182326
1.63219e-07
0.0182326
6.18241e-08
-1.63161e-07
0.0194074
-6.65717e-08
0.0194074
1.6053e-07
0.0194074
6.64161e-08
-1.60465e-07
0.0205604
-7.35377e-08
0.0205604
1.53261e-07
0.0205604
7.34161e-08
-1.53216e-07
0.0217028
-8.14266e-08
0.0217028
1.43687e-07
0.0217028
8.12967e-08
-1.43633e-07
0.0228432
-8.93955e-08
0.0228432
1.33328e-07
0.0228432
8.92968e-08
-1.33295e-07
0.0239882
-9.67946e-08
0.0239882
1.23521e-07
0.0239882
9.66833e-08
-1.23475e-07
0.0251429
-1.03385e-07
0.0251429
1.14585e-07
0.0251429
1.033e-07
-1.14558e-07
0.0263115
-1.08831e-07
0.0263115
1.06748e-07
0.0263115
1.08735e-07
-1.06712e-07
0.0274975
-1.1327e-07
0.0274975
1.00046e-07
0.0274975
1.13195e-07
-1.00025e-07
0.0287041
-1.16925e-07
0.0287041
9.48731e-08
0.0287041
1.16841e-07
-9.48436e-08
0.0299338
-1.20093e-07
0.0299338
9.19557e-08
0.0299338
1.20021e-07
-9.19357e-08
0.0311889
-1.22119e-07
0.0311889
9.21058e-08
0.0311889
1.22046e-07
-9.20849e-08
0.0324712
-1.21247e-07
0.0324712
9.50798e-08
0.0324712
1.21177e-07
-9.50618e-08
0.0337825
-1.15978e-07
0.0337825
9.73739e-08
0.0337825
1.15916e-07
-9.73618e-08
0.0351239
-1.09615e-07
0.0351239
9.22392e-08
0.0351239
1.09546e-07
-9.22222e-08
0.0364963
-1.1534e-07
0.0364963
7.28392e-08
0.0364963
1.15291e-07
-7.28376e-08
0.0379005
-1.55291e-07
0.0379005
4.07997e-08
0.0379005
1.55227e-07
-4.07872e-08
0.0393372
-2.40463e-07
0.0393372
9.40573e-09
0.0393372
2.4043e-07
-9.41797e-09
0.0408081
-3.17661e-07
0.0408082
-1.9227e-08
0.0408081
3.17608e-07
1.92296e-08
0.0423161
-3.46784e-07
0.0423161
-4.82658e-08
0.0423161
3.46768e-07
4.82402e-08
0.0438635
-3.45e-07
0.0438635
-7.06815e-08
0.0438635
3.44965e-07
7.06703e-08
0.0454516
-3.20628e-07
0.0454516
-7.69058e-08
0.0454516
3.20631e-07
7.68644e-08
0.0470817
-2.85016e-07
0.0470816
-6.78835e-08
0.0470817
2.85007e-07
6.78496e-08
0.0487548
-2.49891e-07
0.0487548
-5.2545e-08
0.0487548
2.4991e-07
5.24919e-08
0.050472
-2.17014e-07
0.050472
-3.19187e-08
0.050472
2.17032e-07
3.18628e-08
0.0522342
-1.86587e-07
0.0522342
-7.18849e-09
0.0522342
1.86613e-07
7.13214e-09
0.0540422
-1.58083e-07
0.0540422
2.01383e-08
0.0540422
1.58119e-07
-2.02069e-08
0.0558967
-1.30422e-07
0.0558966
4.86315e-08
0.0558967
1.3045e-07
-4.86849e-08
0.057798
-1.02969e-07
0.057798
7.63486e-08
0.057798
1.03011e-07
-7.64163e-08
0.0597466
-7.8759e-08
0.0597466
9.89321e-08
0.0597466
7.87863e-08
-9.898e-08
0.0617425
-6.16185e-08
0.0617425
1.14732e-07
0.0617425
6.16523e-08
-1.14786e-07
0.0637854
-4.49992e-08
0.0637854
1.27544e-07
0.0637854
4.50306e-08
-1.27591e-07
0.065875
-2.44666e-08
0.065875
1.36328e-07
0.065875
2.44955e-08
-1.36371e-07
0.0680102
-1.45169e-08
0.0680102
1.28453e-07
0.0680103
1.45565e-08
-1.28504e-07
0.07019
-9.95526e-09
0.07019
1.08644e-07
0.07019
9.98889e-09
-1.08687e-07
0.0724125
3.1211e-09
0.0724125
9.20051e-08
0.0724125
-3.08039e-09
-9.20528e-08
0.0746756
2.09838e-08
0.0746756
8.03994e-08
0.0746756
-2.09491e-08
-8.04393e-08
0.0769766
3.8583e-08
0.0769766
7.17382e-08
0.0769766
-3.85513e-08
-7.17728e-08
0.0793121
4.12715e-08
0.0793122
5.7955e-08
0.0793122
-4.12468e-08
-5.79808e-08
0.0816783
2.52572e-08
0.0816783
3.29157e-08
0.0816783
-2.52392e-08
-3.29337e-08
0.0840702
0.0840702
0.0840702
)
;

boundaryField
{
    inlet
    {
        type            cyclic;
        value           nonuniform List<scalar> 
50
(
-0.0840702
-0.0816783
-0.0793121
-0.0769766
-0.0746756
-0.0724125
-0.07019
-0.0680102
-0.065875
-0.0637854
-0.0617425
-0.0597466
-0.0577981
-0.0558967
-0.0540423
-0.0522343
-0.0504721
-0.0487548
-0.0470817
-0.0454516
-0.0438635
-0.0423161
-0.0408081
-0.0393371
-0.0379004
-0.0364963
-0.0351239
-0.0337825
-0.0324712
-0.0311889
-0.0299338
-0.0287041
-0.0274975
-0.0263115
-0.0251428
-0.0239882
-0.0228432
-0.0217028
-0.0205604
-0.0194074
-0.0182326
-0.0170203
-0.0157483
-0.0143844
-0.0128805
-0.0111647
-0.00912544
-0.00665907
-0.00392763
-0.00127088
)
;
    }
    outlet
    {
        type            cyclic;
        value           nonuniform List<scalar> 
50
(
0.0840702
0.0816783
0.0793121
0.0769766
0.0746756
0.0724125
0.07019
0.0680102
0.065875
0.0637854
0.0617425
0.0597466
0.0577981
0.0558967
0.0540423
0.0522343
0.0504721
0.0487548
0.0470817
0.0454516
0.0438635
0.0423161
0.0408081
0.0393371
0.0379004
0.0364963
0.0351239
0.0337825
0.0324712
0.0311889
0.0299338
0.0287041
0.0274975
0.0263115
0.0251428
0.0239882
0.0228432
0.0217028
0.0205604
0.0194074
0.0182326
0.0170203
0.0157483
0.0143844
0.0128805
0.0111647
0.00912544
0.00665907
0.00392763
0.00127088
)
;
    }
    fixedWalls-bottom
    {
        type            calculated;
        value           uniform 0;
    }
    fixedWalls-top
    {
        type            symmetry;
        value           uniform 0;
    }
    frontAndBack
    {
        type            empty;
        value           nonuniform List<scalar> 0();
    }
}


// ************************************************************************* //
