/*--------------------------------*- C++ -*----------------------------------*\
  =========                 |
  \\      /  F ield         | OpenFOAM: The Open Source CFD Toolbox
   \\    /   O peration     | Website:  https://openfoam.org
    \\  /    A nd           | Version:  10
     \\/     M anipulation  |
\*---------------------------------------------------------------------------*/
FoamFile
{
    format      ascii;
    class       volSymmTensorField;
    location    "481";
    object      R;
}
// * * * * * * * * * * * * * * * * * * * * * * * * * * * * * * * * * * * * * //

dimensions      [0 2 -2 0 0 0 0];

internalField   nonuniform List<symmTensor> 
200
(
(4.43894e-06 -1.14781e-07 -0 4.43894e-06 -0 4.43894e-06)
(4.43847e-06 -1.14769e-07 -0 4.43847e-06 -0 4.43847e-06)
(4.43802e-06 -1.14756e-07 -0 4.43802e-06 -0 4.43802e-06)
(4.43812e-06 -1.14758e-07 -0 4.43812e-06 -0 4.43812e-06)
(0.000133372 -1.90057e-05 -0 0.000133372 -0 0.000133372)
(0.000133358 -1.90035e-05 -0 0.000133358 -0 0.000133358)
(0.000133345 -1.90014e-05 -0 0.000133345 -0 0.000133345)
(0.000133348 -1.90018e-05 -0 0.000133348 -0 0.000133348)
(0.000883809 -0.000288273 -0 0.00088381 -0 0.000883809)
(0.000883718 -0.000288235 -0 0.000883718 -0 0.000883718)
(0.000883634 -0.000288205 -0 0.000883634 -0 0.000883634)
(0.000883654 -0.000288213 -0 0.000883654 -0 0.000883654)
(0.0022973 -0.00100977 -0 0.0022973 -0 0.0022973)
(0.0022971 -0.00100963 -0 0.0022971 -0 0.0022971)
(0.00229694 -0.00100955 -0 0.00229694 -0 0.00229694)
(0.00229699 -0.00100959 -0 0.00229699 -0 0.00229699)
(0.00350683 -0.00163068 -0 0.00350683 -0 0.00350683)
(0.00350665 -0.0016306 -0 0.00350665 -0 0.00350665)
(0.00350649 -0.00163052 -0 0.00350649 -0 0.00350649)
(0.00350655 -0.00163055 -0 0.00350655 -0 0.00350655)
(0.00431318 -0.00200577 -0 0.00431318 -0 0.00431318)
(0.00431301 -0.00200569 -0 0.00431301 -0 0.00431301)
(0.00431288 -0.00200563 -0 0.00431288 -0 0.00431288)
(0.004313 -0.00200568 -0 0.004313 -0 0.004313)
(0.00483181 -0.00224716 -0 0.00483181 -0 0.00483181)
(0.00483166 -0.00224709 -0 0.00483165 -0 0.00483165)
(0.00483157 -0.00224705 -0 0.00483157 -0 0.00483157)
(0.00483174 -0.00224713 -0 0.00483175 -0 0.00483175)
(0.00516156 -0.00240018 -0 0.00516155 -0 0.00516156)
(0.0051614 -0.00240011 -0 0.0051614 -0 0.0051614)
(0.00516137 -0.0024001 -0 0.00516137 -0 0.00516137)
(0.00516158 -0.0024002 -0 0.00516159 -0 0.00516159)
(0.00536937 -0.00249677 -0 0.00536937 -0 0.00536937)
(0.00536921 -0.00249669 -0 0.0053692 -0 0.0053692)
(0.00536922 -0.0024967 -0 0.00536922 -0 0.00536922)
(0.00536945 -0.00249681 -0 0.00536946 -0 0.00536945)
(0.00549689 -0.00255606 -0 0.00549689 -0 0.00549689)
(0.00549673 -0.00255598 -0 0.00549673 -0 0.00549673)
(0.00549678 -0.002556 -0 0.00549678 -0 0.00549678)
(0.005497 -0.00255611 -0 0.005497 -0 0.005497)
(0.00556981 -0.00258996 -0 0.00556982 -0 0.00556982)
(0.00556968 -0.0025899 -0 0.00556968 -0 0.00556968)
(0.00556974 -0.00258993 -0 0.00556974 -0 0.00556974)
(0.00556993 -0.00259002 -0 0.00556993 -0 0.00556993)
(0.00560425 -0.00260598 -0 0.00560425 -0 0.00560425)
(0.00560414 -0.00260593 -0 0.00560415 -0 0.00560414)
(0.00560422 -0.00260596 -0 0.00560421 -0 0.00560422)
(0.00560435 -0.00260602 -0 0.00560434 -0 0.00560435)
(0.00561053 -0.0026089 -0 0.00561053 -0 0.00561053)
(0.00561046 -0.00260887 -0 0.00561047 -0 0.00561046)
(0.00561053 -0.0026089 -0 0.00561053 -0 0.00561053)
(0.0056106 -0.00260893 -0 0.00561059 -0 0.0056106)
(0.00559546 -0.00260189 -0 0.00559546 -0 0.00559546)
(0.00559544 -0.00260188 -0 0.00559544 -0 0.00559544)
(0.0055955 -0.00260191 -0 0.00559549 -0 0.0055955)
(0.0055955 -0.00260191 -0 0.00559549 -0 0.0055955)
(0.00556364 -0.00258709 -0 0.00556365 -0 0.00556364)
(0.00556366 -0.0025871 -0 0.00556367 -0 0.00556366)
(0.00556371 -0.00258712 -0 0.00556371 -0 0.00556371)
(0.00556365 -0.0025871 -0 0.00556365 -0 0.00556365)
(0.00551826 -0.00256599 -0 0.00551827 -0 0.00551826)
(0.00551832 -0.00256602 -0 0.00551833 -0 0.00551832)
(0.00551835 -0.00256603 -0 0.00551835 -0 0.00551835)
(0.00551824 -0.00256598 -0 0.00551824 -0 0.00551824)
(0.00546156 -0.00253963 -0 0.00546156 -0 0.00546156)
(0.00546166 -0.00253967 -0 0.00546166 -0 0.00546166)
(0.00546167 -0.00253967 -0 0.00546166 -0 0.00546166)
(0.00546151 -0.0025396 -0 0.0054615 -0 0.00546151)
(0.00539514 -0.00250874 -0 0.00539514 -0 0.00539514)
(0.00539527 -0.0025088 -0 0.00539528 -0 0.00539528)
(0.00539527 -0.0025088 -0 0.00539526 -0 0.00539526)
(0.00539506 -0.0025087 -0 0.00539506 -0 0.00539506)
(0.00532018 -0.00247388 -0 0.00532018 -0 0.00532018)
(0.00532034 -0.00247396 -0 0.00532035 -0 0.00532034)
(0.00532033 -0.00247395 -0 0.00532032 -0 0.00532033)
(0.00532009 -0.00247384 -0 0.00532008 -0 0.00532008)
(0.00523756 -0.00243547 -0 0.00523757 -0 0.00523756)
(0.00523774 -0.00243555 -0 0.00523774 -0 0.00523774)
(0.00523772 -0.00243554 -0 0.00523772 -0 0.00523772)
(0.00523745 -0.00243541 -0 0.00523744 -0 0.00523744)
(0.00514797 -0.00239381 -0 0.00514797 -0 0.00514797)
(0.00514814 -0.00239389 -0 0.00514814 -0 0.00514814)
(0.00514814 -0.00239388 -0 0.00514814 -0 0.00514814)
(0.00514783 -0.00239374 -0 0.00514783 -0 0.00514783)
(0.00505198 -0.00234917 -0 0.00505198 -0 0.00505198)
(0.00505215 -0.00234925 -0 0.00505215 -0 0.00505215)
(0.00505216 -0.00234925 -0 0.00505216 -0 0.00505216)
(0.00505183 -0.0023491 -0 0.00505183 -0 0.00505183)
(0.00495019 -0.00230184 -0 0.00495019 -0 0.00495019)
(0.00495035 -0.00230191 -0 0.00495035 -0 0.00495035)
(0.00495036 -0.00230192 -0 0.00495036 -0 0.00495036)
(0.00495002 -0.00230176 -0 0.00495002 -0 0.00495002)
(0.00484325 -0.00225211 -0 0.00484325 -0 0.00484325)
(0.00484338 -0.00225217 -0 0.00484339 -0 0.00484339)
(0.00484341 -0.00225219 -0 0.00484341 -0 0.00484341)
(0.00484306 -0.00225202 -0 0.00484306 -0 0.00484306)
(0.00473195 -0.00220036 -0 0.00473196 -0 0.00473195)
(0.00473206 -0.00220041 -0 0.00473208 -0 0.00473207)
(0.0047321 -0.00220042 -0 0.00473209 -0 0.00473209)
(0.00473176 -0.00220027 -0 0.00473175 -0 0.00473175)
(0.0046172 -0.00214701 -0 0.00461724 -0 0.00461722)
(0.0046173 -0.00214705 -0 0.00461733 -0 0.00461732)
(0.00461736 -0.00214706 -0 0.00461732 -0 0.00461734)
(0.00461705 -0.00214692 -0 0.00461702 -0 0.00461703)
(0.00449994 -0.00209249 -0 0.00450001 -0 0.00449998)
(0.00450002 -0.00209252 -0 0.00450005 -0 0.00450004)
(0.0045001 -0.00209253 -0 0.00450003 -0 0.00450006)
(0.00449982 -0.00209241 -0 0.00449979 -0 0.00449981)
(0.00438074 -0.00203534 -0 0.00438081 -0 0.00438078)
(0.00438078 -0.00203477 -0 0.00438081 -0 0.00438079)
(0.00438086 -0.00203488 -0 0.00438079 -0 0.00438082)
(0.0043806 -0.00203373 -0 0.00438058 -0 0.00438059)
(0.00425956 -0.00196995 -0 0.00425959 -0 0.00425957)
(0.00425954 -0.00196937 -0 0.00425957 -0 0.00425956)
(0.00425959 -0.00196944 -0 0.00425956 -0 0.00425958)
(0.00425937 -0.00196858 -0 0.00425934 -0 0.00425935)
(0.00413637 -0.00190496 -0 0.00413637 -0 0.00413637)
(0.00413633 -0.00190436 -0 0.00413635 -0 0.00413634)
(0.00413636 -0.0019044 -0 0.00413636 -0 0.00413636)
(0.00413615 -0.00190351 -0 0.00413613 -0 0.00413614)
(0.00401141 -0.00183741 -0 0.00401139 -0 0.0040114)
(0.00401138 -0.00183712 -0 0.00401138 -0 0.00401138)
(0.00401138 -0.00183703 -0 0.00401141 -0 0.00401139)
(0.00401118 -0.00183617 -0 0.00401117 -0 0.00401118)
(0.00388496 -0.00176771 -0 0.00388492 -0 0.00388494)
(0.00388495 -0.00176725 -0 0.00388494 -0 0.00388494)
(0.00388494 -0.0017673 -0 0.00388497 -0 0.00388495)
(0.00388475 -0.00176648 -0 0.00388476 -0 0.00388475)
(0.00375737 -0.00169542 -0 0.00375733 -0 0.00375735)
(0.00375736 -0.00169512 -0 0.00375735 -0 0.00375735)
(0.00375735 -0.00169515 -0 0.00375739 -0 0.00375737)
(0.00375718 -0.0016944 -0 0.00375719 -0 0.00375718)
(0.003629 -0.00162073 -0 0.00362897 -0 0.00362898)
(0.00362899 -0.0016205 -0 0.00362897 -0 0.00362898)
(0.00362899 -0.00162055 -0 0.00362902 -0 0.00362901)
(0.00362883 -0.0016199 -0 0.00362885 -0 0.00362884)
(0.00350028 -0.00154357 -0 0.00350025 -0 0.00350026)
(0.00350027 -0.0015434 -0 0.00350025 -0 0.00350026)
(0.00350027 -0.00154345 -0 0.0035003 -0 0.00350029)
(0.00350012 -0.00154294 -0 0.00350014 -0 0.00350013)
(0.00337168 -0.00146391 -0 0.00337165 -0 0.00337166)
(0.00337167 -0.0014638 -0 0.00337165 -0 0.00337166)
(0.00337168 -0.00146385 -0 0.00337171 -0 0.00337169)
(0.00337154 -0.00146348 -0 0.00337156 -0 0.00337155)
(0.00324376 -0.00138171 -0 0.00324373 -0 0.00324375)
(0.00324376 -0.00138165 -0 0.00324373 -0 0.00324374)
(0.00324376 -0.00138169 -0 0.00324379 -0 0.00324378)
(0.00324364 -0.00138149 -0 0.00324366 -0 0.00324365)
(0.00311717 -0.00129695 -0 0.00311714 -0 0.00311715)
(0.00311716 -0.00129692 -0 0.00311713 -0 0.00311715)
(0.00311716 -0.00129698 -0 0.00311719 -0 0.00311718)
(0.00311706 -0.0012969 -0 0.00311708 -0 0.00311707)
(0.00299262 -0.00120957 -0 0.0029926 -0 0.00299261)
(0.00299262 -0.00120955 -0 0.00299259 -0 0.00299261)
(0.00299262 -0.00120962 -0 0.00299264 -0 0.00299263)
(0.00299254 -0.00120969 -0 0.00299256 -0 0.00299255)
(0.00287098 -0.00111955 -0 0.00287096 -0 0.00287097)
(0.00287097 -0.00111951 -0 0.00287096 -0 0.00287096)
(0.00287097 -0.00111964 -0 0.00287098 -0 0.00287097)
(0.00287092 -0.00111977 -0 0.00287093 -0 0.00287092)
(0.00275321 -0.0010268 -0 0.00275319 -0 0.0027532)
(0.0027532 -0.00102687 -0 0.00275319 -0 0.0027532)
(0.00275318 -0.00102692 -0 0.0027532 -0 0.00275319)
(0.00275316 -0.00102713 -0 0.00275317 -0 0.00275317)
(0.00264039 -0.000931296 -0 0.00264038 -0 0.00264039)
(0.0026404 -0.000931369 -0 0.0026404 -0 0.0026404)
(0.00264036 -0.000931438 -0 0.00264037 -0 0.00264037)
(0.00264037 -0.000931725 -0 0.00264038 -0 0.00264037)
(0.00253377 -0.000832982 -0 0.00253376 -0 0.00253376)
(0.00253379 -0.000832964 -0 0.0025338 -0 0.0025338)
(0.00253371 -0.000833049 -0 0.00253372 -0 0.00253371)
(0.00253379 -0.000833508 -0 0.00253378 -0 0.00253378)
(0.00243472 -0.000731833 -0 0.00243471 -0 0.00243471)
(0.00243466 -0.000731931 -0 0.00243467 -0 0.00243467)
(0.00243461 -0.000732008 -0 0.00243462 -0 0.00243461)
(0.00243467 -0.000732257 -0 0.00243465 -0 0.00243466)
(0.00234462 -0.000627698 -0 0.00234461 -0 0.00234462)
(0.00234458 -0.000627778 -0 0.0023446 -0 0.00234459)
(0.00234455 -0.00062787 -0 0.00234456 -0 0.00234456)
(0.0023446 -0.000628119 -0 0.00234459 -0 0.00234459)
(0.00226519 -0.000520541 -0 0.00226518 -0 0.00226518)
(0.00226515 -0.000520619 -0 0.00226516 -0 0.00226515)
(0.00226514 -0.000520742 -0 0.00226515 -0 0.00226514)
(0.00226518 -0.000520943 -0 0.00226517 -0 0.00226517)
(0.00219812 -0.000410283 -0 0.0021981 -0 0.00219811)
(0.00219804 -0.00041036 -0 0.00219805 -0 0.00219804)
(0.00219807 -0.000410511 -0 0.00219808 -0 0.00219807)
(0.0021981 -0.000410653 -0 0.00219809 -0 0.0021981)
(0.00214518 -0.000296876 -0 0.00214518 -0 0.00214518)
(0.00214499 -0.000296809 -0 0.002145 -0 0.002145)
(0.00214514 -0.000297077 -0 0.00214514 -0 0.00214514)
(0.00214511 -0.000297155 -0 0.0021451 -0 0.00214511)
(0.00210808 -0.000180123 -0 0.00210809 -0 0.00210809)
(0.00210783 -0.00018009 -0 0.00210785 -0 0.00210784)
(0.00210803 -0.000180263 -0 0.00210802 -0 0.00210803)
(0.00210801 -0.000180311 -0 0.00210799 -0 0.002108)
(0.00208864 -6.04594e-05 -0 0.00208866 -0 0.00208865)
(0.00208836 -6.045e-05 -0 0.00208838 -0 0.00208837)
(0.00208858 -6.05068e-05 -0 0.00208856 -0 0.00208857)
(0.00208855 -6.05307e-05 -0 0.00208853 -0 0.00208854)
)
;

boundaryField
{
    inlet
    {
        type            cyclic;
    }
    outlet
    {
        type            cyclic;
    }
    fixedWalls-bottom
    {
        type            kqRWallFunction;
        value           nonuniform List<symmTensor> 4((4.43894e-06 -0 -0 4.43894e-06 -0 4.43894e-06) (4.43847e-06 -0 -0 4.43847e-06 -0 4.43847e-06) (4.43802e-06 -0 -0 4.43802e-06 -0 4.43802e-06) (4.43812e-06 -0 -0 4.43812e-06 -0 4.43812e-06));
    }
    fixedWalls-top
    {
        type            symmetry;
    }
    frontAndBack
    {
        type            empty;
    }
}


// ************************************************************************* //
