/*--------------------------------*- C++ -*----------------------------------*\
  =========                 |
  \\      /  F ield         | OpenFOAM: The Open Source CFD Toolbox
   \\    /   O peration     | Website:  https://openfoam.org
    \\  /    A nd           | Version:  10
     \\/     M anipulation  |
\*---------------------------------------------------------------------------*/
FoamFile
{
    format      ascii;
    class       volVectorField;
    location    "481";
    object      U;
}
// * * * * * * * * * * * * * * * * * * * * * * * * * * * * * * * * * * * * * //

dimensions      [0 1 -1 0 0 0 0];

internalField   nonuniform List<vector> 
200
(
(0.0689746 -1.5377e-09 0)
(0.0689744 1.46608e-09 0)
(0.0689738 1.19466e-09 0)
(0.0689736 -1.46456e-09 0)
(0.207218 -1.80429e-08 0)
(0.207217 1.97143e-08 0)
(0.207215 1.78924e-08 0)
(0.207215 -1.96225e-08 0)
(0.341526 -5.06763e-08 0)
(0.341524 5.3687e-08 0)
(0.341522 5.03432e-08 0)
(0.341521 -5.36071e-08 0)
(0.454962 -8.09457e-08 0)
(0.454961 7.94408e-08 0)
(0.454959 8.06592e-08 0)
(0.454959 -7.936e-08 0)
(0.541102 -9.45785e-08 0)
(0.541101 1.03695e-07 0)
(0.5411 9.43166e-08 0)
(0.541101 -1.03604e-07 0)
(0.606845 -9.27587e-08 0)
(0.606844 1.16989e-07 0)
(0.606844 9.25275e-08 0)
(0.606845 -1.16899e-07 0)
(0.658796 -8.22243e-08 0)
(0.658794 1.30925e-07 0)
(0.658794 8.20063e-08 0)
(0.658795 -1.30837e-07 0)
(0.701143 -7.0765e-08 0)
(0.701142 1.4504e-07 0)
(0.701142 7.0566e-08 0)
(0.701143 -1.44961e-07 0)
(0.736636 -6.32363e-08 0)
(0.736635 1.56547e-07 0)
(0.736635 6.30511e-08 0)
(0.736635 -1.56473e-07 0)
(0.767092 -6.11756e-08 0)
(0.767091 1.62842e-07 0)
(0.767091 6.10082e-08 0)
(0.767091 -1.62776e-07 0)
(0.793741 -6.39091e-08 0)
(0.793741 1.62936e-07 0)
(0.793742 6.37559e-08 0)
(0.793741 -1.62874e-07 0)
(0.817438 -6.985e-08 0)
(0.817438 1.57636e-07 0)
(0.817439 6.9712e-08 0)
(0.817438 -1.57582e-07 0)
(0.83879 -7.7425e-08 0)
(0.83879 1.48836e-07 0)
(0.83879 7.72994e-08 0)
(0.838789 -1.48787e-07 0)
(0.858238 -8.55045e-08 0)
(0.858238 1.38581e-07 0)
(0.858239 8.53906e-08 0)
(0.858238 -1.38537e-07 0)
(0.876114 -9.33042e-08 0)
(0.876114 1.2831e-07 0)
(0.876115 9.31994e-08 0)
(0.876114 -1.28271e-07 0)
(0.89267 -1.00331e-07 0)
(0.89267 1.18805e-07 0)
(0.892671 1.00233e-07 0)
(0.89267 -1.18769e-07 0)
(0.908101 -1.06294e-07 0)
(0.908102 1.1033e-07 0)
(0.908102 1.06204e-07 0)
(0.908101 -1.10299e-07 0)
(0.922564 -1.11178e-07 0)
(0.922564 1.0296e-07 0)
(0.922564 1.11094e-07 0)
(0.922563 -1.02931e-07 0)
(0.936181 -1.15256e-07 0)
(0.936181 9.68827e-08 0)
(0.936181 1.15177e-07 0)
(0.936181 -9.68577e-08 0)
(0.949053 -1.18862e-07 0)
(0.949053 9.27835e-08 0)
(0.949053 1.18784e-07 0)
(0.949053 -9.27588e-08 0)
(0.961261 -1.21725e-07 0)
(0.961261 9.16514e-08 0)
(0.961261 1.21653e-07 0)
(0.96126 -9.16313e-08 0)
(0.972867 -1.22154e-07 0)
(0.972867 9.39015e-08 0)
(0.972867 1.22083e-07 0)
(0.972867 -9.38822e-08 0)
(0.983919 -1.17813e-07 0)
(0.983919 9.74325e-08 0)
(0.983919 1.17748e-07 0)
(0.983919 -9.7418e-08 0)
(0.994451 -1.09352e-07 0)
(0.994451 9.66469e-08 0)
(0.994451 1.09287e-07 0)
(0.994451 -9.66328e-08 0)
(1.00448 -1.0735e-07 0)
(1.00448 8.45588e-08 0)
(1.00448 1.07292e-07 0)
(1.00448 -8.45484e-08 0)
(1.01403 -1.34474e-07 0)
(1.01403 5.97704e-08 0)
(1.01403 1.3442e-07 0)
(1.01403 -5.97619e-08 0)
(1.02311 -2.03867e-07 0)
(1.02311 2.90671e-08 0)
(1.02311 2.03818e-07 0)
(1.02311 -2.9071e-08 0)
(1.03176 -2.72233e-07 0)
(1.03176 -8.8455e-09 0)
(1.03176 2.72189e-07 0)
(1.03176 8.83906e-09 0)
(1.04004 -3.38136e-07 0)
(1.04004 -3.80204e-08 0)
(1.04005 3.38105e-07 0)
(1.04004 3.80128e-08 0)
(1.048 -3.53301e-07 0)
(1.048 -6.36686e-08 0)
(1.048 3.53277e-07 0)
(1.048 6.36518e-08 0)
(1.05565 -3.34665e-07 0)
(1.05565 -7.49499e-08 0)
(1.05565 3.34648e-07 0)
(1.05565 7.49238e-08 0)
(1.06301 -3.04943e-07 0)
(1.06301 -7.61842e-08 0)
(1.06301 3.04941e-07 0)
(1.06301 7.6146e-08 0)
(1.07008 -2.67437e-07 0)
(1.07008 -6.22689e-08 0)
(1.07008 2.67441e-07 0)
(1.07008 6.22251e-08 0)
(1.07687 -2.32492e-07 0)
(1.07687 -4.30943e-08 0)
(1.07687 2.3251e-07 0)
(1.07687 4.30386e-08 0)
(1.08338 -2.00925e-07 0)
(1.08338 -2.00734e-08 0)
(1.08338 2.00947e-07 0)
(1.08338 2.00165e-08 0)
(1.08961 -1.71654e-07 0)
(1.08961 6.34667e-09 0)
(1.08961 1.71685e-07 0)
(1.08961 -6.40965e-09 0)
(1.09556 -1.43387e-07 0)
(1.09556 3.49639e-08 0)
(1.09556 1.43419e-07 0)
(1.09556 -3.50258e-08 0)
(1.10123 -1.15695e-07 0)
(1.10123 6.37969e-08 0)
(1.10123 1.15729e-07 0)
(1.10123 -6.38575e-08 0)
(1.1066 -9.11237e-08 0)
(1.1066 8.83748e-08 0)
(1.1066 9.1159e-08 0)
(1.1066 -8.84336e-08 0)
(1.11166 -7.11652e-08 0)
(1.11166 1.0826e-07 0)
(1.11166 7.11955e-08 0)
(1.11167 -1.0831e-07 0)
(1.11641 -5.08318e-08 0)
(1.11641 1.2382e-07 0)
(1.11641 5.08654e-08 0)
(1.11641 -1.23872e-07 0)
(1.12082 -3.40047e-08 0)
(1.12082 1.34701e-07 0)
(1.12082 3.40358e-08 0)
(1.12082 -1.34746e-07 0)
(1.12487 -2.46481e-08 0)
(1.12487 1.31388e-07 0)
(1.12487 2.46829e-08 0)
(1.12487 -1.31436e-07 0)
(1.12854 -1.00947e-08 0)
(1.12854 1.21215e-07 0)
(1.12854 1.01326e-08 0)
(1.12854 -1.21262e-07 0)
(1.1318 -2.5868e-09 0)
(1.1318 1.00204e-07 0)
(1.1318 2.62505e-09 0)
(1.1318 -1.00249e-07 0)
(1.13461 1.2921e-08 0)
(1.13461 8.57809e-08 0)
(1.13461 -1.2883e-08 0)
(1.13461 -8.58258e-08 0)
(1.13695 3.18172e-08 0)
(1.13695 7.77368e-08 0)
(1.13695 -3.1784e-08 0)
(1.13695 -7.77739e-08 0)
(1.13876 3.85854e-08 0)
(1.13876 6.71195e-08 0)
(1.13877 -3.85602e-08 0)
(1.13876 -6.71479e-08 0)
(1.14002 3.61889e-08 0)
(1.14002 4.77437e-08 0)
(1.14002 -3.61644e-08 0)
(1.14002 -4.77663e-08 0)
(1.14068 1.40327e-08 0)
(1.14068 1.74328e-08 0)
(1.14068 -1.40277e-08 0)
(1.14068 -1.74403e-08 0)
)
;

boundaryField
{
    inlet
    {
        type            cyclic;
    }
    outlet
    {
        type            cyclic;
    }
    fixedWalls-bottom
    {
        type            noSlip;
    }
    fixedWalls-top
    {
        type            symmetry;
    }
    frontAndBack
    {
        type            empty;
    }
}


// ************************************************************************* //
