/*--------------------------------*- C++ -*----------------------------------*\
  =========                 |
  \\      /  F ield         | OpenFOAM: The Open Source CFD Toolbox
   \\    /   O peration     | Website:  https://openfoam.org
    \\  /    A nd           | Version:  10
     \\/     M anipulation  |
\*---------------------------------------------------------------------------*/
FoamFile
{
    format      ascii;
    class       volScalarField;
    location    "4087";
    object      nut;
}
// * * * * * * * * * * * * * * * * * * * * * * * * * * * * * * * * * * * * * //

dimensions      [0 2 -1 0 0 0 0];

internalField   nonuniform List<scalar> 
400
(
1.86523e-10
1.86443e-10
1.86459e-10
1.86488e-10
3.26364e-08
3.26225e-08
3.26253e-08
3.26304e-08
6.73515e-07
6.73225e-07
6.73283e-07
6.73387e-07
4.84579e-06
4.84358e-06
4.844e-06
4.84473e-06
1.8841e-05
1.88316e-05
1.88335e-05
1.88362e-05
4.84459e-05
4.84216e-05
4.84274e-05
4.84334e-05
9.40712e-05
9.40295e-05
9.40439e-05
9.40532e-05
0.000152067
0.000152018
0.000152048
0.000152058
0.000215268
0.000215225
0.000215255
0.000215285
0.000282916
0.000282873
0.000282912
0.000282957
0.000356068
0.000356024
0.000356077
0.000356135
0.000434221
0.000434176
0.000434244
0.000434315
0.000516743
0.000516695
0.000516777
0.000516859
0.000602954
0.000602902
0.000602996
0.000603087
0.000692514
0.000692457
0.00069256
0.000692655
0.00078513
0.000785068
0.000785176
0.000785269
0.000880569
0.000880508
0.000880616
0.000880698
0.00097866
0.000978605
0.00097871
0.000978773
0.00107927
0.00107923
0.00107933
0.00107937
0.0011823
0.00118228
0.00118237
0.00118238
0.00128764
0.00128764
0.00128773
0.00128771
0.00139521
0.00139523
0.00139532
0.00139527
0.00150487
0.00150491
0.001505
0.00150492
0.0016165
0.00161655
0.00161664
0.00161652
0.00172991
0.00172998
0.00173007
0.00172992
0.00184492
0.001845
0.00184509
0.00184491
0.00196129
0.00196138
0.00196146
0.00196126
0.00207877
0.00207886
0.00207895
0.00207872
0.00219707
0.00219718
0.00219726
0.00219701
0.00231589
0.00231601
0.00231609
0.00231583
0.00243492
0.00243505
0.00243513
0.00243486
0.00255384
0.00255399
0.00255405
0.00255378
0.00267233
0.00267248
0.00267254
0.00267227
0.00279007
0.00279024
0.00279028
0.00279001
0.0029068
0.00290696
0.002907
0.00290674
0.00302225
0.00302242
0.00302245
0.0030222
0.00313627
0.00313644
0.00313646
0.00313621
0.00324875
0.00324892
0.00324892
0.00324868
0.00335973
0.00335988
0.00335987
0.00335965
0.00346939
0.00346951
0.00346947
0.0034693
0.00357806
0.00357812
0.00357809
0.00357797
0.00368624
0.00368624
0.00368624
0.00368618
0.00379455
0.00379448
0.00379459
0.00379457
0.00390359
0.00390348
0.00390379
0.00390377
0.0040137
0.00401361
0.00401422
0.00401406
0.00412441
0.00412444
0.00412536
0.00412495
0.00423368
0.0042339
0.00423494
0.00423427
0.00433663
0.00433694
0.00433747
0.00433696
0.00442373
0.0044236
0.00442234
0.0044233
0.00449294
0.00449276
0.0044914
0.00449249
0.00455775
0.00455751
0.00455606
0.00455725
0.00461806
0.00461771
0.0046162
0.00461751
0.00467371
0.00467318
0.0046717
0.00467311
0.00472459
0.00472384
0.00472246
0.00472397
0.00477096
0.00476995
0.00476874
0.00477032
0.00481304
0.00481177
0.00481074
0.00481239
0.00485078
0.0048493
0.00484843
0.00485016
0.0048842
0.00488254
0.00488182
0.00488361
0.00491329
0.00491151
0.00491091
0.00491277
0.00493804
0.00493621
0.00493572
0.00493765
0.00495842
0.0049566
0.00495622
0.00495822
0.00497437
0.0049726
0.0049723
0.00497438
0.00498578
0.00498411
0.00498388
0.00498602
0.00499258
0.00499108
0.00499087
0.00499308
0.00499485
0.00499361
0.00499331
0.00499561
0.00499263
0.00499158
0.00499131
0.00499365
0.00498587
0.00498502
0.00498477
0.00498716
0.00497445
0.0049738
0.00497358
0.00497602
0.00495826
0.00495784
0.00495764
0.00496014
0.00493731
0.0049371
0.00493694
0.0049395
0.0049116
0.0049116
0.00491149
0.00491409
0.00488118
0.00488133
0.00488131
0.00488392
0.00484613
0.00484628
0.00484646
0.00484901
0.00480668
0.00480637
0.00480703
0.00480945
0.00476244
0.00476227
0.00476287
0.00476537
0.00471367
0.00471402
0.00471423
0.00471685
0.00466061
0.00466098
0.00466132
0.00466409
0.00460338
0.00460345
0.00460421
0.00460723
0.0045421
0.00454256
0.00454278
0.00454648
0.00447664
0.00447811
0.00447754
0.00448203
0.00440829
0.00440977
0.00440933
0.00441402
0.00433699
0.00433822
0.00433827
0.00434286
0.00426344
0.0042636
0.00426474
0.00426906
0.0041869
0.00418802
0.0041882
0.00419332
0.00410996
0.00410942
0.00411117
0.00411572
0.00403121
0.0040311
0.00403228
0.00403739
0.00395205
0.00395289
0.00395353
0.00395875
0.00387347
0.00387399
0.00387525
0.00388095
0.00379594
0.00379844
0.0037976
0.0038048
0.00372223
0.00372393
0.0037241
0.00373065
0.00365307
0.00365208
0.00365536
0.00365973
0.00358739
0.00358628
0.00358993
0.00359384
0.00352741
0.00352642
0.00352996
0.00353379
0.00347419
0.00347373
0.00347647
0.00348054
0.00342857
0.00342965
0.0034303
0.00343494
0.0033911
0.00339232
0.00339272
0.00339756
0.003362
0.00336326
0.00336354
0.00336863
0.00334145
0.00334221
0.00334267
0.00334802
0.00332864
0.00332861
0.00332973
0.00333528
0.00332227
0.00332402
0.00332368
0.00332993
)
;

boundaryField
{
    inlet
    {
        type            cyclic;
    }
    outlet
    {
        type            cyclic;
    }
    fixedWalls-bottom
    {
        type            nutkWallFunction;
        Cmu             0.09;
        kappa           0.41;
        E               9.8;
        value           uniform 0;
    }
    fixedWalls-top
    {
        type            symmetry;
    }
    frontAndBack
    {
        type            empty;
    }
}


// ************************************************************************* //
