/*--------------------------------*- C++ -*----------------------------------*\
  =========                 |
  \\      /  F ield         | OpenFOAM: The Open Source CFD Toolbox
   \\    /   O peration     | Website:  https://openfoam.org
    \\  /    A nd           | Version:  10
     \\/     M anipulation  |
\*---------------------------------------------------------------------------*/
FoamFile
{
    format      ascii;
    class       volScalarField;
    location    "4087";
    object      omega;
}
// * * * * * * * * * * * * * * * * * * * * * * * * * * * * * * * * * * * * * //

dimensions      [0 0 -1 0 0 0 0];

internalField   nonuniform List<scalar> 
400
(
3642.47
3642.47
3642.47
3642.47
624.438
624.438
624.438
624.438
213.45
213.451
213.451
213.452
105.329
105.333
105.333
105.333
65.1292
65.1355
65.1355
65.1356
46.2979
46.305
46.3047
46.3052
35.6979
35.7038
35.7028
35.7037
28.891
28.8943
28.8925
28.894
24.1283
24.1297
24.1275
24.128
20.5954
20.5953
20.5924
20.5927
17.8659
17.8643
17.8608
17.8611
15.6946
15.6921
15.6882
15.6885
13.9288
13.926
13.9218
13.9221
12.4668
12.4642
12.4597
12.4601
11.2378
11.2355
11.2312
11.2315
10.191
10.1892
10.1852
10.1856
9.2894
9.28803
9.2845
9.28499
8.50517
8.50415
8.50124
8.502
7.8174
7.8166
7.8142
7.81531
7.20979
7.20894
7.20714
7.20849
6.66957
6.66856
6.66737
6.66889
6.18673
6.18554
6.18488
6.18653
5.75307
5.75196
5.75167
5.75348
5.36216
5.36133
5.36127
5.36327
5.00886
5.00835
5.00841
5.01059
4.68883
4.68859
4.68874
4.69107
4.39842
4.39832
4.39857
4.40102
4.1345
4.13439
4.13479
4.13731
3.89423
3.89425
3.89464
3.89724
3.67528
3.67547
3.6758
3.67843
3.47573
3.47583
3.47621
3.47881
3.2934
3.2936
3.294
3.29652
3.12697
3.12703
3.1275
3.1299
2.97462
2.97467
2.97519
2.97744
2.83512
2.83517
2.83569
2.83779
2.70723
2.70729
2.70777
2.70972
2.58983
2.58991
2.59031
2.59211
2.48188
2.48197
2.48229
2.48394
2.38246
2.38254
2.38281
2.3843
2.29073
2.2908
2.29104
2.29235
2.20594
2.20601
2.20623
2.20736
2.12743
2.1275
2.12771
2.12865
2.0546
2.05466
2.0549
2.0556
1.98691
1.98698
1.98728
1.98768
1.92388
1.92396
1.92435
1.92439
1.86506
1.86511
1.86553
1.86538
1.81001
1.81007
1.81051
1.81023
1.75842
1.75848
1.75894
1.75859
1.70997
1.71003
1.71051
1.71011
1.66437
1.66445
1.66494
1.66452
1.6214
1.62149
1.62199
1.62156
1.58085
1.58097
1.58147
1.58102
1.54256
1.54273
1.5432
1.54273
1.50637
1.50661
1.50702
1.50654
1.47203
1.47233
1.47268
1.4722
1.43931
1.43968
1.43995
1.43947
1.4081
1.40852
1.40874
1.40825
1.37828
1.37874
1.37891
1.37842
1.34974
1.35022
1.35035
1.34985
1.32239
1.32287
1.32296
1.32246
1.29615
1.29661
1.29667
1.29617
1.27094
1.27138
1.27142
1.27091
1.24672
1.24713
1.24715
1.24663
1.22344
1.2238
1.22381
1.22329
1.20101
1.20129
1.20133
1.2008
1.17935
1.17959
1.17961
1.17908
1.15842
1.15861
1.15864
1.15811
1.13821
1.13835
1.13837
1.13784
1.11868
1.11877
1.11879
1.11825
1.0998
1.09983
1.09984
1.0993
1.0815
1.0815
1.0815
1.08095
1.06376
1.06373
1.0637
1.06316
1.04652
1.04649
1.04642
1.0459
1.02971
1.02977
1.02961
1.02912
1.01339
1.01342
1.01327
1.01277
0.997489
0.997408
0.997344
0.996817
0.981948
0.981864
0.981772
0.981217
0.966744
0.966723
0.966544
0.965937
0.951865
0.951761
0.951696
0.950949
0.937355
0.937041
0.937138
0.936231
0.92298
0.922663
0.922732
0.921787
0.908795
0.908531
0.908495
0.907574
0.894716
0.894676
0.894413
0.893546
0.880973
0.880729
0.880667
0.879632
0.867111
0.867216
0.866824
0.865908
0.853544
0.853556
0.853282
0.852242
0.840102
0.839911
0.839748
0.838685
0.826733
0.826609
0.826316
0.825145
0.813524
0.812979
0.813132
0.811639
0.8001
0.799729
0.799661
0.798309
0.786563
0.786767
0.786033
0.785143
0.773428
0.773654
0.772845
0.772049
0.760553
0.760749
0.75997
0.759187
0.748077
0.748159
0.747555
0.746719
0.736221
0.735977
0.735821
0.734863
0.725289
0.72502
0.724913
0.723918
0.715656
0.715382
0.715296
0.714253
0.707681
0.707516
0.707392
0.706298
0.701901
0.701902
0.701638
0.700507
0.698884
0.698513
0.698555
0.697283
)
;

boundaryField
{
    inlet
    {
        type            cyclic;
    }
    outlet
    {
        type            cyclic;
    }
    fixedWalls-bottom
    {
        beta1           0.075;
        blended         0;
        type            omegaWallFunction;
        value           uniform 3642.47;
    }
    fixedWalls-top
    {
        type            symmetry;
    }
    frontAndBack
    {
        type            empty;
    }
}


// ************************************************************************* //
