/*--------------------------------*- C++ -*----------------------------------*\
  =========                 |
  \\      /  F ield         | OpenFOAM: The Open Source CFD Toolbox
   \\    /   O peration     | Website:  https://openfoam.org
    \\  /    A nd           | Version:  10
     \\/     M anipulation  |
\*---------------------------------------------------------------------------*/
FoamFile
{
    format      ascii;
    class       volScalarField;
    location    "4087";
    object      p;
}
// * * * * * * * * * * * * * * * * * * * * * * * * * * * * * * * * * * * * * //

dimensions      [0 2 -2 0 0 0 0];

internalField   nonuniform List<scalar> 
400
(
6.343e-13
-1.02219e-06
-1.30607e-06
-2.83657e-07
2.71608e-10
-1.02154e-06
-1.30634e-06
-2.84301e-07
6.15914e-10
-1.02079e-06
-1.30668e-06
-2.85054e-07
9.22049e-10
-1.02009e-06
-1.30699e-06
-2.85757e-07
1.00285e-09
-1.0197e-06
-1.30707e-06
-2.86141e-07
5.71872e-10
-1.02009e-06
-1.30664e-06
-2.85751e-07
-6.9239e-10
-1.02122e-06
-1.30537e-06
-2.8462e-07
-3.0891e-09
-1.0221e-06
-1.30297e-06
-2.83743e-07
-6.7879e-09
-1.02205e-06
-1.29928e-06
-2.83796e-07
-1.18691e-08
-1.02114e-06
-1.2942e-06
-2.84706e-07
-1.83518e-08
-1.01938e-06
-1.28771e-06
-2.86464e-07
-2.61281e-08
-1.01681e-06
-1.27994e-06
-2.89039e-07
-3.49919e-08
-1.01359e-06
-1.27107e-06
-2.9226e-07
-4.46571e-08
-1.00996e-06
-1.26141e-06
-2.9588e-07
-5.47589e-08
-1.00618e-06
-1.2513e-06
-2.99667e-07
-6.48657e-08
-1.0024e-06
-1.2412e-06
-3.0344e-07
-7.45383e-08
-9.98725e-07
-1.23152e-06
-3.0712e-07
-8.34082e-08
-9.95094e-07
-1.22265e-06
-3.10751e-07
-9.1239e-08
-9.91373e-07
-1.21482e-06
-3.14472e-07
-9.79459e-08
-9.87384e-07
-1.20812e-06
-3.18462e-07
-1.03572e-07
-9.82981e-07
-1.20249e-06
-3.22865e-07
-1.08238e-07
-9.78095e-07
-1.19782e-06
-3.27751e-07
-1.12072e-07
-9.72757e-07
-1.19399e-06
-3.3309e-07
-1.15174e-07
-9.67062e-07
-1.19089e-06
-3.38785e-07
-1.17608e-07
-9.61104e-07
-1.18845e-06
-3.44744e-07
-1.19428e-07
-9.54932e-07
-1.18663e-06
-3.50916e-07
-1.2069e-07
-9.48568e-07
-1.18537e-06
-3.5728e-07
-1.21474e-07
-9.42022e-07
-1.18459e-06
-3.63827e-07
-1.21876e-07
-9.35309e-07
-1.18418e-06
-3.7054e-07
-1.21991e-07
-9.28451e-07
-1.18407e-06
-3.77399e-07
-1.219e-07
-9.21474e-07
-1.18416e-06
-3.84375e-07
-1.21668e-07
-9.14409e-07
-1.18439e-06
-3.91441e-07
-1.21342e-07
-9.07285e-07
-1.18472e-06
-3.98565e-07
-1.20958e-07
-9.00132e-07
-1.1851e-06
-4.05719e-07
-1.20537e-07
-8.9298e-07
-1.18552e-06
-4.12871e-07
-1.20085e-07
-8.85867e-07
-1.18597e-06
-4.19984e-07
-1.19589e-07
-8.7885e-07
-1.18647e-06
-4.27002e-07
-1.19038e-07
-8.72027e-07
-1.18702e-06
-4.33825e-07
-1.18453e-07
-8.65544e-07
-1.1876e-06
-4.40308e-07
-1.17954e-07
-8.59568e-07
-1.1881e-06
-4.46284e-07
-1.1781e-07
-8.54211e-07
-1.18825e-06
-4.51642e-07
-1.18474e-07
-8.49381e-07
-1.18758e-06
-4.56472e-07
-1.20529e-07
-8.44591e-07
-1.18553e-06
-4.61262e-07
-1.2451e-07
-8.38751e-07
-1.18155e-06
-4.67102e-07
-1.30522e-07
-8.30121e-07
-1.17553e-06
-4.75732e-07
-1.37799e-07
-8.16839e-07
-1.16825e-06
-4.89016e-07
-1.44501e-07
-7.98975e-07
-1.16155e-06
-5.0688e-07
-1.48365e-07
-7.82395e-07
-1.15769e-06
-5.23459e-07
-1.4852e-07
-7.7882e-07
-1.15754e-06
-5.27033e-07
-1.46812e-07
-7.87139e-07
-1.15925e-06
-5.18715e-07
-1.45113e-07
-7.97539e-07
-1.16095e-06
-5.08315e-07
-1.43722e-07
-8.08452e-07
-1.16234e-06
-4.97403e-07
-1.42988e-07
-8.20424e-07
-1.16307e-06
-4.85433e-07
-1.43517e-07
-8.33566e-07
-1.16254e-06
-4.72292e-07
-1.45803e-07
-8.47551e-07
-1.16025e-06
-4.58307e-07
-1.50067e-07
-8.62112e-07
-1.15598e-06
-4.43747e-07
-1.56258e-07
-8.77104e-07
-1.14979e-06
-4.28756e-07
-1.64144e-07
-8.92349e-07
-1.1419e-06
-4.1351e-07
-1.73473e-07
-9.07589e-07
-1.13257e-06
-3.98271e-07
-1.84109e-07
-9.22446e-07
-1.12194e-06
-3.83414e-07
-1.96029e-07
-9.36468e-07
-1.11002e-06
-3.69391e-07
-2.0913e-07
-9.49336e-07
-1.09691e-06
-3.56523e-07
-2.2318e-07
-9.60877e-07
-1.08286e-06
-3.44982e-07
-2.37812e-07
-9.70958e-07
-1.06823e-06
-3.349e-07
-2.52468e-07
-9.7954e-07
-1.05358e-06
-3.26318e-07
-2.67058e-07
-9.8655e-07
-1.03899e-06
-3.19308e-07
-2.8188e-07
-9.91863e-07
-1.02416e-06
-3.13995e-07
-2.97009e-07
-9.95401e-07
-1.00904e-06
-3.10457e-07
-3.12482e-07
-9.97099e-07
-9.93564e-07
-3.08759e-07
-3.2835e-07
-9.96913e-07
-9.77696e-07
-3.08947e-07
-3.44581e-07
-9.94821e-07
-9.61465e-07
-3.11039e-07
-3.61159e-07
-9.90866e-07
-9.44887e-07
-3.14996e-07
-3.7845e-07
-9.85381e-07
-9.27596e-07
-3.20483e-07
-3.97313e-07
-9.79276e-07
-9.08733e-07
-3.26588e-07
-4.16987e-07
-9.73022e-07
-8.89058e-07
-3.32844e-07
-4.35276e-07
-9.66164e-07
-8.70769e-07
-3.39702e-07
-4.53289e-07
-9.58356e-07
-8.52756e-07
-3.47512e-07
-4.74376e-07
-9.49916e-07
-8.31669e-07
-3.55954e-07
-4.98048e-07
-9.41871e-07
-8.07996e-07
-3.63999e-07
-5.21832e-07
-9.33835e-07
-7.84212e-07
-3.72036e-07
-5.46051e-07
-9.24737e-07
-7.59993e-07
-3.81135e-07
-5.72347e-07
-9.1444e-07
-7.33697e-07
-3.91433e-07
-6.02053e-07
-9.03557e-07
-7.0399e-07
-4.02317e-07
-6.33608e-07
-8.92948e-07
-6.72435e-07
-4.12926e-07
-6.67139e-07
-8.83209e-07
-6.38903e-07
-4.22663e-07
-7.0232e-07
-8.74538e-07
-6.03721e-07
-4.31331e-07
-7.35607e-07
-8.65147e-07
-5.70434e-07
-4.40718e-07
-7.69207e-07
-8.54104e-07
-5.36833e-07
-4.5176e-07
-8.02633e-07
-8.42971e-07
-5.03406e-07
-4.6289e-07
-8.34273e-07
-8.32065e-07
-4.71766e-07
-4.73793e-07
-8.67244e-07
-8.20283e-07
-4.38793e-07
-4.85573e-07
-9.0038e-07
-8.07602e-07
-4.05654e-07
-4.98252e-07
-9.30504e-07
-7.95248e-07
-3.75527e-07
-5.10607e-07
-9.5585e-07
-7.84695e-07
-3.50181e-07
-5.21162e-07
-9.74471e-07
-7.76834e-07
-3.31561e-07
-5.29026e-07
-9.87869e-07
-7.71152e-07
-3.18165e-07
-5.34708e-07
-9.98968e-07
-7.66818e-07
-3.07067e-07
-5.39042e-07
-1.00828e-06
-7.63856e-07
-2.97754e-07
-5.42004e-07
-1.0155e-06
-7.62153e-07
-2.90539e-07
-5.43706e-07
-1.01997e-06
-7.6119e-07
-2.86063e-07
-5.44669e-07
)
;

boundaryField
{
    inlet
    {
        type            cyclic;
    }
    outlet
    {
        type            cyclic;
    }
    fixedWalls-bottom
    {
        type            zeroGradient;
    }
    fixedWalls-top
    {
        type            symmetry;
    }
    frontAndBack
    {
        type            empty;
    }
}


// ************************************************************************* //
