/*--------------------------------*- C++ -*----------------------------------*\
  =========                 |
  \\      /  F ield         | OpenFOAM: The Open Source CFD Toolbox
   \\    /   O peration     | Website:  https://openfoam.org
    \\  /    A nd           | Version:  10
     \\/     M anipulation  |
\*---------------------------------------------------------------------------*/
FoamFile
{
    format      ascii;
    class       volSymmTensorField;
    location    "4087";
    object      R;
}
// * * * * * * * * * * * * * * * * * * * * * * * * * * * * * * * * * * * * * //

dimensions      [0 2 -2 0 0 0 0];

internalField   nonuniform List<symmTensor> 
400
(
(4.52936e-07 -2.7751e-09 -0 4.52936e-07 -0 4.52936e-07)
(4.52743e-07 -2.77382e-09 -0 4.52743e-07 -0 4.52743e-07)
(4.52782e-07 -2.77404e-09 -0 4.52782e-07 -0 4.52782e-07)
(4.52853e-07 -2.77453e-09 -0 4.52853e-07 -0 4.52853e-07)
(1.35863e-05 -4.82954e-07 -0 1.35863e-05 -0 1.35863e-05)
(1.35805e-05 -4.8273e-07 -0 1.35805e-05 -0 1.35805e-05)
(1.35817e-05 -4.8277e-07 -0 1.35817e-05 -0 1.35817e-05)
(1.35838e-05 -4.82856e-07 -0 1.35838e-05 -0 1.35838e-05)
(9.58413e-05 -9.86412e-06 -0 9.58412e-05 -0 9.58412e-05)
(9.58004e-05 -9.85949e-06 -0 9.58004e-05 -0 9.58004e-05)
(9.58088e-05 -9.86035e-06 -0 9.58088e-05 -0 9.58088e-05)
(9.58236e-05 -9.86211e-06 -0 9.58236e-05 -0 9.58236e-05)
(0.000340268 -6.90303e-05 -0 0.000340268 -0 0.000340268)
(0.000340124 -6.89965e-05 -0 0.000340124 -0 0.000340124)
(0.000340156 -6.90029e-05 -0 0.000340156 -0 0.000340156)
(0.000340208 -6.9015e-05 -0 0.000340208 -0 0.000340208)
(0.000818066 -0.000251908 -0 0.000818065 -0 0.000818066)
(0.000817737 -0.000251779 -0 0.000817736 -0 0.000817737)
(0.000817821 -0.000251808 -0 0.000817821 -0 0.000817821)
(0.000817939 -0.000251849 -0 0.00081794 -0 0.00081794)
(0.0014953 -0.000581027 -0 0.0014953 -0 0.0014953)
(0.00149477 -0.000580745 -0 0.00149477 -0 0.00149477)
(0.00149494 -0.000580822 -0 0.00149495 -0 0.00149494)
(0.00149514 -0.000580901 -0 0.00149515 -0 0.00149514)
(0.00223876 -0.000976429 -0 0.00223876 -0 0.00223876)
(0.00223814 -0.00097604 -0 0.00223814 -0 0.00223814)
(0.00223842 -0.000976194 -0 0.00223842 -0 0.00223842)
(0.00223869 -0.000976298 -0 0.0022387 -0 0.0022387)
(0.00292892 -0.00134717 -0 0.00292892 -0 0.00292892)
(0.0029283 -0.0013468 -0 0.0029283 -0 0.0029283)
(0.00292869 -0.00134706 -0 0.0029287 -0 0.00292869)
(0.00292904 -0.00134715 -0 0.00292904 -0 0.00292904)
(0.00351598 -0.00163493 -0 0.00351598 -0 0.00351598)
(0.00351541 -0.00163467 -0 0.00351541 -0 0.00351541)
(0.00351589 -0.00163489 -0 0.0035159 -0 0.0035159)
(0.00351632 -0.00163509 -0 0.00351632 -0 0.00351632)
(0.00400035 -0.00186016 -0 0.00400034 -0 0.00400035)
(0.00399984 -0.00185993 -0 0.00399984 -0 0.00399984)
(0.00400042 -0.0018602 -0 0.00400043 -0 0.00400043)
(0.00400089 -0.00186042 -0 0.00400089 -0 0.00400089)
(0.00439463 -0.00204351 -0 0.00439461 -0 0.00439462)
(0.0043942 -0.00204331 -0 0.00439419 -0 0.0043942)
(0.00439485 -0.00204362 -0 0.00439486 -0 0.00439485)
(0.00439534 -0.00204385 -0 0.00439534 -0 0.00439534)
(0.004713 -0.0021916 -0 0.00471299 -0 0.00471299)
(0.00471264 -0.00219144 -0 0.00471264 -0 0.00471264)
(0.00471335 -0.00219177 -0 0.00471336 -0 0.00471335)
(0.00471384 -0.002192 -0 0.00471384 -0 0.00471384)
(0.00496931 -0.00231097 -0 0.0049693 -0 0.00496931)
(0.004969 -0.00231083 -0 0.004969 -0 0.004969)
(0.00496975 -0.00231118 -0 0.00496976 -0 0.00496976)
(0.00497023 -0.0023114 -0 0.00497023 -0 0.00497023)
(0.00517561 -0.00240677 -0 0.00517561 -0 0.00517561)
(0.00517534 -0.00240665 -0 0.00517534 -0 0.00517534)
(0.00517611 -0.002407 -0 0.00517611 -0 0.00517611)
(0.00517656 -0.00240721 -0 0.00517656 -0 0.00517656)
(0.00534179 -0.00248398 -0 0.00534179 -0 0.00534179)
(0.00534154 -0.00248386 -0 0.00534154 -0 0.00534154)
(0.0053423 -0.00248422 -0 0.0053423 -0 0.0053423)
(0.00534271 -0.00248441 -0 0.00534271 -0 0.00534271)
(0.00547566 -0.00254621 -0 0.00547567 -0 0.00547567)
(0.00547543 -0.0025461 -0 0.00547544 -0 0.00547544)
(0.00547617 -0.00254644 -0 0.00547616 -0 0.00547617)
(0.00547652 -0.0025466 -0 0.00547652 -0 0.00547652)
(0.00558337 -0.00259628 -0 0.00558338 -0 0.00558337)
(0.00558316 -0.00259618 -0 0.00558317 -0 0.00558317)
(0.00558385 -0.0025965 -0 0.00558385 -0 0.00558385)
(0.00558414 -0.00259663 -0 0.00558413 -0 0.00558414)
(0.00566969 -0.00263641 -0 0.0056697 -0 0.0056697)
(0.00566951 -0.00263633 -0 0.00566953 -0 0.00566952)
(0.00567015 -0.00263662 -0 0.00567014 -0 0.00567014)
(0.00567036 -0.00263672 -0 0.00567035 -0 0.00567035)
(0.00573836 -0.00266834 -0 0.00573837 -0 0.00573837)
(0.00573822 -0.00266828 -0 0.00573824 -0 0.00573823)
(0.00573879 -0.00266854 -0 0.00573878 -0 0.00573879)
(0.00573893 -0.0026686 -0 0.00573891 -0 0.00573892)
(0.00579232 -0.00269343 -0 0.00579233 -0 0.00579232)
(0.00579222 -0.00269339 -0 0.00579224 -0 0.00579223)
(0.00579273 -0.00269362 -0 0.00579272 -0 0.00579272)
(0.00579278 -0.00269364 -0 0.00579276 -0 0.00579277)
(0.00583386 -0.00271275 -0 0.00583388 -0 0.00583387)
(0.00583381 -0.00271273 -0 0.00583384 -0 0.00583382)
(0.00583426 -0.00271293 -0 0.00583425 -0 0.00583425)
(0.00583423 -0.00271291 -0 0.00583421 -0 0.00583422)
(0.00586484 -0.00272715 -0 0.00586485 -0 0.00586485)
(0.00586484 -0.00272716 -0 0.00586486 -0 0.00586485)
(0.00586522 -0.00272733 -0 0.00586521 -0 0.00586522)
(0.00586513 -0.00272728 -0 0.0058651 -0 0.00586511)
(0.00588673 -0.00273733 -0 0.00588674 -0 0.00588673)
(0.00588676 -0.00273735 -0 0.00588678 -0 0.00588677)
(0.00588709 -0.0027375 -0 0.00588708 -0 0.00588709)
(0.00588692 -0.00273741 -0 0.0058869 -0 0.00588691)
(0.00590071 -0.00274383 -0 0.00590072 -0 0.00590071)
(0.00590076 -0.00274386 -0 0.00590079 -0 0.00590078)
(0.00590105 -0.00274399 -0 0.00590104 -0 0.00590105)
(0.00590082 -0.00274387 -0 0.00590079 -0 0.0059008)
(0.00590774 -0.0027471 -0 0.00590775 -0 0.00590774)
(0.00590782 -0.00274714 -0 0.00590784 -0 0.00590783)
(0.00590807 -0.00274725 -0 0.00590806 -0 0.00590807)
(0.00590777 -0.00274711 -0 0.00590775 -0 0.00590776)
(0.00590862 -0.00274751 -0 0.00590863 -0 0.00590863)
(0.00590873 -0.00274756 -0 0.00590875 -0 0.00590874)
(0.00590895 -0.00274766 -0 0.00590894 -0 0.00590894)
(0.00590859 -0.00274749 -0 0.00590857 -0 0.00590858)
(0.00590401 -0.00274537 -0 0.00590402 -0 0.00590402)
(0.00590415 -0.00274543 -0 0.00590417 -0 0.00590416)
(0.00590433 -0.00274551 -0 0.00590432 -0 0.00590433)
(0.00590393 -0.00274532 -0 0.00590391 -0 0.00590392)
(0.00589447 -0.00274093 -0 0.00589448 -0 0.00589448)
(0.00589463 -0.00274101 -0 0.00589465 -0 0.00589464)
(0.00589478 -0.00274107 -0 0.00589478 -0 0.00589478)
(0.00589435 -0.00274087 -0 0.00589433 -0 0.00589434)
(0.00588047 -0.00273442 -0 0.00588048 -0 0.00588047)
(0.00588065 -0.00273451 -0 0.00588067 -0 0.00588066)
(0.00588078 -0.00273456 -0 0.00588077 -0 0.00588077)
(0.00588031 -0.00273434 -0 0.0058803 -0 0.00588031)
(0.0058624 -0.00272602 -0 0.00586241 -0 0.0058624)
(0.0058626 -0.00272611 -0 0.00586262 -0 0.00586261)
(0.0058627 -0.00272616 -0 0.0058627 -0 0.0058627)
(0.00586223 -0.00272593 -0 0.00586221 -0 0.00586222)
(0.00584061 -0.00271589 -0 0.00584062 -0 0.00584062)
(0.00584083 -0.00271599 -0 0.00584085 -0 0.00584084)
(0.00584092 -0.00271602 -0 0.00584091 -0 0.00584091)
(0.00584043 -0.0027158 -0 0.00584042 -0 0.00584042)
(0.00581541 -0.00270417 -0 0.00581541 -0 0.00581541)
(0.00581564 -0.00270428 -0 0.00581565 -0 0.00581565)
(0.00581571 -0.0027043 -0 0.0058157 -0 0.0058157)
(0.00581522 -0.00270407 -0 0.00581521 -0 0.00581521)
(0.00578704 -0.00269098 -0 0.00578705 -0 0.00578705)
(0.00578729 -0.00269109 -0 0.0057873 -0 0.00578729)
(0.00578734 -0.00269111 -0 0.00578733 -0 0.00578734)
(0.00578686 -0.00269089 -0 0.00578685 -0 0.00578685)
(0.00575575 -0.00267642 -0 0.00575575 -0 0.00575575)
(0.005756 -0.00267654 -0 0.00575601 -0 0.00575601)
(0.00575604 -0.00267656 -0 0.00575603 -0 0.00575603)
(0.00575557 -0.00267634 -0 0.00575556 -0 0.00575557)
(0.00572172 -0.0026606 -0 0.00572173 -0 0.00572173)
(0.00572198 -0.00266072 -0 0.00572198 -0 0.00572198)
(0.00572201 -0.00266073 -0 0.005722 -0 0.005722)
(0.00572155 -0.00266052 -0 0.00572155 -0 0.00572155)
(0.00568515 -0.0026436 -0 0.00568515 -0 0.00568515)
(0.0056854 -0.00264371 -0 0.00568541 -0 0.0056854)
(0.00568542 -0.00264372 -0 0.00568542 -0 0.00568542)
(0.00568499 -0.00264352 -0 0.00568499 -0 0.00568499)
(0.00564618 -0.00262548 -0 0.00564619 -0 0.00564619)
(0.00564643 -0.00262559 -0 0.00564643 -0 0.00564643)
(0.00564645 -0.0026256 -0 0.00564644 -0 0.00564644)
(0.00564604 -0.00262541 -0 0.00564604 -0 0.00564604)
(0.00560497 -0.00260631 -0 0.00560498 -0 0.00560497)
(0.00560521 -0.00260642 -0 0.00560521 -0 0.00560521)
(0.00560522 -0.00260643 -0 0.00560522 -0 0.00560522)
(0.00560484 -0.00260625 -0 0.00560484 -0 0.00560484)
(0.00556165 -0.00258617 -0 0.00556165 -0 0.00556165)
(0.00556188 -0.00258627 -0 0.00556188 -0 0.00556188)
(0.00556188 -0.00258627 -0 0.00556188 -0 0.00556188)
(0.00556153 -0.00258611 -0 0.00556153 -0 0.00556153)
(0.00551635 -0.0025651 -0 0.00551635 -0 0.00551635)
(0.00551656 -0.0025652 -0 0.00551656 -0 0.00551656)
(0.00551656 -0.0025652 -0 0.00551656 -0 0.00551656)
(0.00551624 -0.00256505 -0 0.00551624 -0 0.00551624)
(0.00546919 -0.00254318 -0 0.0054692 -0 0.0054692)
(0.00546939 -0.00254327 -0 0.00546939 -0 0.00546939)
(0.00546939 -0.00254326 -0 0.00546938 -0 0.00546938)
(0.00546909 -0.00254313 -0 0.00546909 -0 0.00546909)
(0.00542032 -0.00252045 -0 0.00542033 -0 0.00542032)
(0.0054205 -0.00252053 -0 0.0054205 -0 0.0054205)
(0.00542049 -0.00252053 -0 0.00542048 -0 0.00542049)
(0.00542023 -0.00252041 -0 0.00542022 -0 0.00542023)
(0.00536987 -0.00249699 -0 0.00536988 -0 0.00536988)
(0.00537003 -0.00249707 -0 0.00537004 -0 0.00537003)
(0.00537002 -0.00249706 -0 0.00537001 -0 0.00537001)
(0.00536979 -0.00249695 -0 0.00536978 -0 0.00536979)
(0.005318 -0.00247288 -0 0.00531802 -0 0.00531801)
(0.00531814 -0.00247294 -0 0.00531815 -0 0.00531815)
(0.00531813 -0.00247293 -0 0.00531811 -0 0.00531812)
(0.00531793 -0.00247284 -0 0.00531792 -0 0.00531793)
(0.00526488 -0.00244818 -0 0.00526492 -0 0.0052649)
(0.00526501 -0.00244823 -0 0.00526501 -0 0.00526501)
(0.005265 -0.00244822 -0 0.00526496 -0 0.00526498)
(0.00526482 -0.00244814 -0 0.00526482 -0 0.00526482)
(0.00521069 -0.00242298 -0 0.00521074 -0 0.00521071)
(0.00521081 -0.00242302 -0 0.00521079 -0 0.0052108)
(0.00521079 -0.00242301 -0 0.00521075 -0 0.00521077)
(0.00521063 -0.00242295 -0 0.00521064 -0 0.00521064)
(0.00515557 -0.00239736 -0 0.00515564 -0 0.0051556)
(0.00515569 -0.00239739 -0 0.00515566 -0 0.00515568)
(0.00515568 -0.00239738 -0 0.00515562 -0 0.00515565)
(0.00515552 -0.00239733 -0 0.00515556 -0 0.00515554)
(0.00509965 -0.00237135 -0 0.00509972 -0 0.00509969)
(0.00509977 -0.00237138 -0 0.00509971 -0 0.00509974)
(0.00509976 -0.00237137 -0 0.00509969 -0 0.00509972)
(0.0050996 -0.00237133 -0 0.00509966 -0 0.00509963)
(0.00504291 -0.00234322 -0 0.00504298 -0 0.00504295)
(0.00504302 -0.00234304 -0 0.00504295 -0 0.00504299)
(0.005043 -0.00234255 -0 0.00504293 -0 0.00504297)
(0.00504286 -0.00234302 -0 0.00504292 -0 0.00504289)
(0.00498525 -0.00231218 -0 0.00498531 -0 0.00498528)
(0.00498534 -0.00231198 -0 0.00498528 -0 0.00498531)
(0.00498531 -0.00231166 -0 0.00498524 -0 0.00498527)
(0.00498519 -0.00231208 -0 0.00498525 -0 0.00498522)
(0.0049266 -0.00228224 -0 0.00492665 -0 0.00492663)
(0.00492666 -0.00228197 -0 0.00492661 -0 0.00492664)
(0.00492662 -0.0022816 -0 0.00492656 -0 0.00492659)
(0.00492653 -0.00228213 -0 0.00492658 -0 0.00492656)
(0.00486695 -0.00225165 -0 0.004867 -0 0.00486697)
(0.004867 -0.00225131 -0 0.00486696 -0 0.00486698)
(0.00486694 -0.00225092 -0 0.00486689 -0 0.00486692)
(0.00486688 -0.00225153 -0 0.00486692 -0 0.0048669)
(0.00480631 -0.0022204 -0 0.00480634 -0 0.00480632)
(0.00480634 -0.00222 -0 0.0048063 -0 0.00480632)
(0.00480626 -0.0022196 -0 0.00480622 -0 0.00480624)
(0.00480623 -0.00222028 -0 0.00480626 -0 0.00480625)
(0.00474465 -0.00218847 -0 0.00474467 -0 0.00474466)
(0.00474467 -0.002188 -0 0.00474464 -0 0.00474466)
(0.00474457 -0.00218762 -0 0.00474455 -0 0.00474456)
(0.00474456 -0.00218834 -0 0.0047446 -0 0.00474458)
(0.00468199 -0.00215591 -0 0.00468199 -0 0.00468199)
(0.00468199 -0.00215538 -0 0.00468197 -0 0.00468198)
(0.00468187 -0.00215503 -0 0.00468186 -0 0.00468187)
(0.00468189 -0.00215579 -0 0.00468191 -0 0.0046819)
(0.0046183 -0.00212275 -0 0.0046183 -0 0.0046183)
(0.0046183 -0.00212217 -0 0.00461827 -0 0.00461829)
(0.00461817 -0.00212186 -0 0.00461816 -0 0.00461817)
(0.00461819 -0.00212264 -0 0.00461822 -0 0.00461821)
(0.0045536 -0.00208896 -0 0.00455359 -0 0.00455359)
(0.00455358 -0.00208835 -0 0.00455356 -0 0.00455357)
(0.00455344 -0.00208807 -0 0.00455345 -0 0.00455345)
(0.00455348 -0.00208887 -0 0.0045535 -0 0.00455349)
(0.00448787 -0.00205455 -0 0.00448786 -0 0.00448787)
(0.00448785 -0.00205391 -0 0.00448784 -0 0.00448784)
(0.0044877 -0.00205368 -0 0.00448771 -0 0.00448771)
(0.00448775 -0.00205448 -0 0.00448777 -0 0.00448776)
(0.00442113 -0.00201952 -0 0.00442111 -0 0.00442112)
(0.00442109 -0.00201887 -0 0.00442109 -0 0.00442109)
(0.00442095 -0.00201867 -0 0.00442096 -0 0.00442095)
(0.00442101 -0.00201948 -0 0.00442101 -0 0.00442101)
(0.00435336 -0.00198387 -0 0.00435334 -0 0.00435335)
(0.00435332 -0.00198322 -0 0.00435332 -0 0.00435332)
(0.00435317 -0.00198306 -0 0.00435319 -0 0.00435318)
(0.00435324 -0.00198387 -0 0.00435324 -0 0.00435324)
(0.00428457 -0.0019476 -0 0.00428455 -0 0.00428456)
(0.00428453 -0.00194697 -0 0.00428453 -0 0.00428453)
(0.00428438 -0.00194683 -0 0.0042844 -0 0.00428439)
(0.00428445 -0.00194765 -0 0.00428445 -0 0.00428445)
(0.00421476 -0.00191071 -0 0.00421474 -0 0.00421475)
(0.00421471 -0.00191011 -0 0.00421472 -0 0.00421472)
(0.00421457 -0.00191 -0 0.00421459 -0 0.00421458)
(0.00421465 -0.00191081 -0 0.00421464 -0 0.00421465)
(0.00414394 -0.00187319 -0 0.00414391 -0 0.00414393)
(0.00414389 -0.00187263 -0 0.0041439 -0 0.00414389)
(0.00414375 -0.00187254 -0 0.00414377 -0 0.00414376)
(0.00414383 -0.00187335 -0 0.00414382 -0 0.00414383)
(0.00407209 -0.00183502 -0 0.00407207 -0 0.00407208)
(0.00407204 -0.00183452 -0 0.00407205 -0 0.00407205)
(0.00407191 -0.00183444 -0 0.00407193 -0 0.00407192)
(0.004072 -0.00183526 -0 0.00407198 -0 0.00407199)
(0.00399924 -0.00179624 -0 0.00399922 -0 0.00399923)
(0.00399919 -0.00179581 -0 0.0039992 -0 0.00399919)
(0.00399906 -0.00179571 -0 0.00399908 -0 0.00399907)
(0.00399915 -0.00179654 -0 0.00399914 -0 0.00399914)
(0.00392537 -0.00175683 -0 0.00392535 -0 0.00392536)
(0.00392532 -0.00175646 -0 0.00392534 -0 0.00392533)
(0.0039252 -0.00175638 -0 0.00392522 -0 0.00392521)
(0.0039253 -0.0017572 -0 0.00392528 -0 0.00392529)
(0.00385051 -0.0017168 -0 0.00385049 -0 0.0038505)
(0.00385046 -0.00171649 -0 0.00385048 -0 0.00385047)
(0.00385035 -0.00171642 -0 0.00385037 -0 0.00385036)
(0.00385045 -0.00171723 -0 0.00385043 -0 0.00385044)
(0.00377466 -0.00167613 -0 0.00377464 -0 0.00377465)
(0.00377461 -0.00167589 -0 0.00377463 -0 0.00377462)
(0.0037745 -0.00167582 -0 0.00377452 -0 0.00377451)
(0.00377461 -0.00167663 -0 0.00377459 -0 0.0037746)
(0.00369783 -0.00163482 -0 0.0036978 -0 0.00369781)
(0.00369778 -0.00163464 -0 0.0036978 -0 0.00369779)
(0.00369768 -0.00163457 -0 0.0036977 -0 0.00369769)
(0.00369779 -0.00163538 -0 0.00369777 -0 0.00369778)
(0.00362003 -0.00159286 -0 0.00362001 -0 0.00362002)
(0.00361999 -0.00159274 -0 0.00362 -0 0.00362)
(0.00361989 -0.00159269 -0 0.00361991 -0 0.0036199)
(0.00362 -0.00159349 -0 0.00361999 -0 0.00361999)
(0.00354128 -0.00155026 -0 0.00354127 -0 0.00354127)
(0.00354125 -0.00155019 -0 0.00354126 -0 0.00354126)
(0.00354116 -0.00155015 -0 0.00354118 -0 0.00354117)
(0.00354127 -0.00155095 -0 0.00354126 -0 0.00354126)
(0.00346162 -0.00150701 -0 0.0034616 -0 0.00346161)
(0.0034616 -0.00150699 -0 0.0034616 -0 0.0034616)
(0.00346151 -0.00150696 -0 0.00346152 -0 0.00346152)
(0.00346161 -0.00150775 -0 0.00346161 -0 0.00346161)
(0.00338107 -0.0014631 -0 0.00338105 -0 0.00338106)
(0.00338105 -0.00146313 -0 0.00338105 -0 0.00338105)
(0.00338096 -0.00146312 -0 0.00338098 -0 0.00338097)
(0.00338106 -0.0014639 -0 0.00338106 -0 0.00338106)
(0.00329967 -0.00141859 -0 0.00329966 -0 0.00329967)
(0.00329965 -0.00141856 -0 0.00329965 -0 0.00329965)
(0.00329957 -0.00141864 -0 0.00329959 -0 0.00329958)
(0.00329967 -0.00141939 -0 0.00329967 -0 0.00329967)
(0.00321748 -0.00137338 -0 0.00321747 -0 0.00321748)
(0.00321746 -0.00137338 -0 0.00321746 -0 0.00321746)
(0.00321739 -0.00137346 -0 0.0032174 -0 0.00321739)
(0.00321748 -0.00137424 -0 0.00321748 -0 0.00321748)
(0.00313456 -0.0013275 -0 0.00313455 -0 0.00313455)
(0.00313454 -0.00132759 -0 0.00313453 -0 0.00313454)
(0.00313447 -0.00132761 -0 0.00313448 -0 0.00313447)
(0.00313455 -0.00132842 -0 0.00313456 -0 0.00313456)
(0.00305099 -0.00128096 -0 0.00305098 -0 0.00305098)
(0.00305097 -0.00128106 -0 0.00305096 -0 0.00305097)
(0.0030509 -0.00128111 -0 0.00305091 -0 0.0030509)
(0.00305098 -0.00128194 -0 0.00305099 -0 0.00305099)
(0.00296687 -0.00123376 -0 0.00296686 -0 0.00296686)
(0.00296685 -0.00123382 -0 0.00296684 -0 0.00296684)
(0.00296678 -0.00123395 -0 0.00296679 -0 0.00296678)
(0.00296686 -0.00123481 -0 0.00296687 -0 0.00296687)
(0.00288231 -0.0011859 -0 0.00288231 -0 0.00288231)
(0.00288229 -0.00118601 -0 0.00288228 -0 0.00288229)
(0.00288222 -0.00118607 -0 0.00288223 -0 0.00288223)
(0.00288231 -0.00118701 -0 0.00288232 -0 0.00288231)
(0.00279747 -0.00113728 -0 0.00279746 -0 0.00279747)
(0.00279745 -0.00113754 -0 0.00279744 -0 0.00279745)
(0.00279738 -0.00113751 -0 0.00279739 -0 0.00279738)
(0.00279747 -0.00113855 -0 0.00279748 -0 0.00279748)
(0.00271251 -0.0010881 -0 0.0027125 -0 0.00271251)
(0.00271249 -0.00108832 -0 0.00271248 -0 0.00271249)
(0.00271241 -0.00108834 -0 0.00271242 -0 0.00271242)
(0.00271252 -0.0010894 -0 0.00271253 -0 0.00271252)
(0.00262763 -0.00103822 -0 0.00262762 -0 0.00262762)
(0.00262761 -0.00103846 -0 0.0026276 -0 0.00262761)
(0.00262753 -0.00103851 -0 0.00262754 -0 0.00262753)
(0.00262764 -0.00103956 -0 0.00262765 -0 0.00262764)
(0.00254305 -0.000987772 -0 0.00254304 -0 0.00254305)
(0.00254303 -0.000987821 -0 0.00254302 -0 0.00254303)
(0.00254295 -0.000988076 -0 0.00254296 -0 0.00254296)
(0.00254306 -0.000989049 -0 0.00254308 -0 0.00254307)
(0.00245903 -0.000936478 -0 0.00245903 -0 0.00245903)
(0.00245901 -0.000936765 -0 0.002459 -0 0.00245901)
(0.00245894 -0.000936804 -0 0.00245894 -0 0.00245894)
(0.00245905 -0.000937911 -0 0.00245906 -0 0.00245905)
(0.00237586 -0.000884763 -0 0.00237586 -0 0.00237586)
(0.00237584 -0.000884761 -0 0.00237584 -0 0.00237584)
(0.00237577 -0.000885095 -0 0.00237577 -0 0.00237577)
(0.00237588 -0.000886054 -0 0.00237589 -0 0.00237589)
(0.00229387 -0.000832238 -0 0.00229388 -0 0.00229388)
(0.00229384 -0.00083232 -0 0.00229384 -0 0.00229384)
(0.00229378 -0.000832545 -0 0.00229378 -0 0.00229378)
(0.00229389 -0.000833589 -0 0.00229389 -0 0.00229389)
(0.00221341 -0.000779091 -0 0.00221342 -0 0.00221341)
(0.00221338 -0.000779283 -0 0.00221338 -0 0.00221338)
(0.00221332 -0.000779439 -0 0.00221331 -0 0.00221332)
(0.00221343 -0.00078044 -0 0.00221343 -0 0.00221343)
(0.00213488 -0.000725334 -0 0.00213489 -0 0.00213488)
(0.00213485 -0.000725387 -0 0.00213485 -0 0.00213485)
(0.00213479 -0.000725704 -0 0.00213479 -0 0.00213479)
(0.0021349 -0.000726672 -0 0.0021349 -0 0.0021349)
(0.00205872 -0.000670862 -0 0.00205873 -0 0.00205873)
(0.0020587 -0.00067116 -0 0.00205871 -0 0.0020587)
(0.00205863 -0.000671203 -0 0.00205863 -0 0.00205863)
(0.00205875 -0.000672283 -0 0.00205875 -0 0.00205875)
(0.00198544 -0.000615903 -0 0.00198544 -0 0.00198544)
(0.00198542 -0.000616111 -0 0.00198543 -0 0.00198542)
(0.00198535 -0.000616259 -0 0.00198534 -0 0.00198535)
(0.00198548 -0.000617201 -0 0.00198547 -0 0.00198547)
(0.00191557 -0.00056042 -0 0.00191558 -0 0.00191558)
(0.00191555 -0.000560377 -0 0.00191556 -0 0.00191556)
(0.00191549 -0.000560797 -0 0.00191548 -0 0.00191549)
(0.00191561 -0.000561463 -0 0.0019156 -0 0.00191561)
(0.00184972 -0.000504197 -0 0.00184973 -0 0.00184973)
(0.00184969 -0.000504198 -0 0.0018497 -0 0.00184969)
(0.00184965 -0.000504562 -0 0.00184963 -0 0.00184964)
(0.00184976 -0.000505159 -0 0.00184974 -0 0.00184975)
(0.00178851 -0.000447404 -0 0.00178853 -0 0.00178852)
(0.00178847 -0.000447387 -0 0.00178849 -0 0.00178848)
(0.00178845 -0.000447726 -0 0.00178843 -0 0.00178844)
(0.00178855 -0.000448248 -0 0.00178853 -0 0.00178854)
(0.00173263 -0.000389998 -0 0.00173265 -0 0.00173264)
(0.00173259 -0.000389976 -0 0.00173261 -0 0.0017326)
(0.00173258 -0.000390253 -0 0.00173256 -0 0.00173257)
(0.00173266 -0.00039073 -0 0.00173265 -0 0.00173266)
(0.00168278 -0.000331962 -0 0.0016828 -0 0.00168279)
(0.00168275 -0.000332018 -0 0.00168277 -0 0.00168276)
(0.00168273 -0.000332128 -0 0.00168271 -0 0.00168272)
(0.00168281 -0.000332586 -0 0.0016828 -0 0.00168281)
(0.00163968 -0.000273266 -0 0.0016397 -0 0.00163969)
(0.00163966 -0.000273298 -0 0.00163968 -0 0.00163967)
(0.00163963 -0.000273389 -0 0.00163961 -0 0.00163962)
(0.00163971 -0.000273784 -0 0.00163969 -0 0.0016397)
(0.00160402 -0.000213872 -0 0.00160403 -0 0.00160402)
(0.001604 -0.000213909 -0 0.00160402 -0 0.00160401)
(0.00160396 -0.000213963 -0 0.00160395 -0 0.00160395)
(0.00160404 -0.000214287 -0 0.00160403 -0 0.00160403)
(0.00157645 -0.000153752 -0 0.00157646 -0 0.00157645)
(0.00157644 -0.000153775 -0 0.00157645 -0 0.00157644)
(0.00157639 -0.00015381 -0 0.00157638 -0 0.00157638)
(0.00157647 -0.000154051 -0 0.00157646 -0 0.00157647)
(0.00155758 -9.28453e-05 -0 0.00155759 -0 0.00155758)
(0.00155756 -9.28442e-05 -0 0.00155758 -0 0.00155757)
(0.00155751 -9.28804e-05 -0 0.0015575 -0 0.00155751)
(0.0015576 -9.30259e-05 -0 0.00155759 -0 0.00155759)
(0.00154792 -3.1092e-05 -0 0.00154793 -0 0.00154792)
(0.00154791 -3.11059e-05 -0 0.00154792 -0 0.00154791)
(0.00154786 -3.11062e-05 -0 0.00154784 -0 0.00154785)
(0.00154794 -3.11595e-05 -0 0.00154793 -0 0.00154794)
)
;

boundaryField
{
    inlet
    {
        type            cyclic;
    }
    outlet
    {
        type            cyclic;
    }
    fixedWalls-bottom
    {
        type            kqRWallFunction;
        value           nonuniform List<symmTensor> 4((4.52936e-07 -0 -0 4.52936e-07 -0 4.52936e-07) (4.52743e-07 -0 -0 4.52743e-07 -0 4.52743e-07) (4.52782e-07 -0 -0 4.52782e-07 -0 4.52782e-07) (4.52853e-07 -0 -0 4.52853e-07 -0 4.52853e-07));
    }
    fixedWalls-top
    {
        type            symmetry;
    }
    frontAndBack
    {
        type            empty;
    }
}


// ************************************************************************* //
