/*--------------------------------*- C++ -*----------------------------------*\
  =========                 |
  \\      /  F ield         | OpenFOAM: The Open Source CFD Toolbox
   \\    /   O peration     | Website:  https://openfoam.org
    \\  /    A nd           | Version:  10
     \\/     M anipulation  |
\*---------------------------------------------------------------------------*/
FoamFile
{
    format      ascii;
    class       volScalarField;
    location    "10000";
    object      omega;
}
// * * * * * * * * * * * * * * * * * * * * * * * * * * * * * * * * * * * * * //

dimensions      [0 0 -1 0 0 0 0];

internalField   nonuniform List<scalar> 
400
(
77314.2
77314.2
77314.2
77314.2
12678.5
12678.5
12678.5
12678.5
4181.07
4181.07
4181.07
4181.07
1945.48
1945.48
1945.48
1945.47
1098.58
1098.58
1098.58
1098.56
701.268
701.27
701.268
701.236
485.963
485.965
485.963
485.931
356.008
356.008
356.007
355.983
270.953
270.953
270.952
270.937
212.215
212.214
212.214
212.205
170.074
170.073
170.073
170.068
138.904
138.903
138.903
138.9
115.26
115.26
115.26
115.257
96.9408
96.9405
96.9412
96.9391
82.4874
82.4873
82.4882
82.4867
70.904
70.9041
70.9054
70.9041
61.4929
61.4932
61.4949
61.4939
53.754
53.7545
53.7565
53.7558
47.3218
47.3224
47.3249
47.3244
41.9243
41.9251
41.928
41.9278
37.3561
37.3571
37.3605
37.3605
33.4598
33.4609
33.4649
33.4651
30.1133
30.1146
30.1191
30.1196
27.2208
27.2223
27.2274
27.2282
24.7065
24.7082
24.7138
24.715
22.5096
22.5115
22.5175
22.5191
20.5812
20.5832
20.5897
20.5918
18.8815
18.8836
18.8905
18.8931
17.3779
17.3801
17.3872
17.3904
16.0436
16.0459
16.0532
16.057
14.8563
14.8586
14.8661
14.8706
13.7976
13.7999
13.8073
13.8126
12.8517
12.854
12.8612
12.8673
12.0056
12.0079
12.0148
12.0217
11.248
11.2503
11.2568
11.2646
10.5695
10.5716
10.5777
10.5862
9.96171
9.96369
9.96932
9.97851
9.41749
9.4193
9.42449
9.4342
8.93058
8.93222
8.93699
8.94703
8.49545
8.49691
8.5013
8.51149
8.10718
8.10848
8.11251
8.12268
7.76137
7.76252
7.76621
7.7762
7.45405
7.45506
7.45841
7.46811
7.1816
7.18249
7.18553
7.1948
6.94074
6.94152
6.94425
6.953
6.72843
6.72911
6.73154
6.73968
6.54188
6.54247
6.54462
6.55206
6.37848
6.37899
6.38087
6.38756
6.23584
6.23628
6.23789
6.24377
6.11171
6.11208
6.11343
6.11845
6.00399
6.00429
6.0054
6.00951
5.91071
5.91096
5.91181
5.915
5.83005
5.83024
5.83085
5.83307
5.76029
5.76043
5.76078
5.76201
5.69982
5.69989
5.7
5.70021
5.64713
5.64709
5.64699
5.64616
5.6007
5.60068
5.60031
5.59844
5.55932
5.55925
5.55864
5.55571
5.52167
5.52157
5.52073
5.51674
5.48658
5.48647
5.48538
5.48036
5.45295
5.45291
5.45146
5.44547
5.41978
5.41977
5.41803
5.41103
5.38612
5.38618
5.38406
5.37608
5.35108
5.35124
5.34866
5.3397
5.31383
5.31409
5.31097
5.30105
5.2736
5.27375
5.27026
5.25932
5.22962
5.22951
5.22575
5.21377
5.18088
5.18073
5.1768
5.1637
5.12679
5.12663
5.12279
5.10853
5.06684
5.06639
5.06327
5.04774
5.00102
5.00046
4.9975
4.98095
4.92907
4.92821
4.92546
4.90791
4.85118
4.84979
4.84725
4.8287
4.76877
4.76639
4.76397
4.74445
4.68105
4.68033
4.67733
4.65722
4.5928
4.59216
4.58913
4.56852
4.50384
4.50323
4.50023
4.47924
4.41461
4.41404
4.411
4.38985
4.32537
4.32489
4.32158
4.30061
4.23637
4.23617
4.23196
4.21163
4.14794
4.14861
4.14233
4.12292
4.06053
4.05943
4.05453
4.03421
3.97422
3.96916
3.96802
3.94577
3.88613
3.88196
3.88074
3.8582
3.79698
3.79593
3.79344
3.77166
3.71081
3.71047
3.70659
3.68624
3.62608
3.6268
3.62022
3.60233
3.54322
3.54393
3.53514
3.5202
3.46234
3.46253
3.45365
3.43958
3.38382
3.38372
3.37478
3.36123
3.30812
3.3079
3.29885
3.28571
3.23579
3.23552
3.22639
3.21358
3.16741
3.16714
3.158
3.14547
3.10367
3.10333
3.09435
3.08202
3.04528
3.04464
3.03621
3.02393
2.99309
2.99143
2.98443
2.97195
2.94798
2.94352
2.9401
2.92688
2.911
2.90723
2.9024
2.88955
2.88326
2.88207
2.87285
2.86082
2.86606
2.86374
2.85428
2.84167
)
;

boundaryField
{
    inlet
    {
        type            cyclic;
    }
    outlet
    {
        type            cyclic;
    }
    fixedWalls-bottom
    {
        beta1           0.075;
        blended         0;
        type            omegaWallFunction;
        value           uniform 77314.2;
    }
    fixedWalls-top
    {
        type            symmetry;
    }
    frontAndBack
    {
        type            empty;
    }
}


// ************************************************************************* //
