/*--------------------------------*- C++ -*----------------------------------*\
  =========                 |
  \\      /  F ield         | OpenFOAM: The Open Source CFD Toolbox
   \\    /   O peration     | Website:  https://openfoam.org
    \\  /    A nd           | Version:  10
     \\/     M anipulation  |
\*---------------------------------------------------------------------------*/
FoamFile
{
    format      ascii;
    class       volScalarField;
    location    "10000";
    object      p;
}
// * * * * * * * * * * * * * * * * * * * * * * * * * * * * * * * * * * * * * //

dimensions      [0 2 -2 0 0 0 0];

internalField   nonuniform List<scalar> 
400
(
1.45466e-18
-1.91878e-16
1.68448e-16
3.36218e-16
4.397e-18
-1.914e-16
1.6832e-16
3.35688e-16
5.07379e-18
-1.90872e-16
1.68108e-16
3.35137e-16
4.82546e-18
-1.90389e-16
1.67911e-16
3.34552e-16
3.94839e-18
-1.89832e-16
1.67603e-16
3.33915e-16
2.56201e-18
-1.89154e-16
1.67437e-16
3.33047e-16
1.04859e-18
-1.88725e-16
1.67312e-16
3.32337e-16
-6.2211e-19
-1.88372e-16
1.67238e-16
3.31628e-16
-2.15376e-18
-1.88226e-16
1.67042e-16
3.31195e-16
-3.89921e-18
-1.88348e-16
1.6692e-16
3.31074e-16
-5.42221e-18
-1.88569e-16
1.66707e-16
3.30938e-16
-7.212e-18
-1.88952e-16
1.66545e-16
3.31198e-16
-8.92988e-18
-1.89086e-16
1.66382e-16
3.31215e-16
-1.07805e-17
-1.88692e-16
1.66387e-16
3.30764e-16
-1.26125e-17
-1.88563e-16
1.66523e-16
3.30404e-16
-1.47575e-17
-1.88451e-16
1.6649e-16
3.30478e-16
-1.68882e-17
-1.88905e-16
1.66788e-16
3.30728e-16
-1.89022e-17
-1.89581e-16
1.67353e-16
3.3097e-16
-2.09967e-17
-1.90564e-16
1.68227e-16
3.31136e-16
-2.35683e-17
-1.91554e-16
1.69272e-16
3.31885e-16
-2.59734e-17
-1.92733e-16
1.70374e-16
3.32561e-16
-2.86052e-17
-1.92848e-16
1.7154e-16
3.32269e-16
-3.13224e-17
-1.93465e-16
1.73045e-16
3.32407e-16
-3.44206e-17
-1.93775e-16
1.74856e-16
3.32166e-16
-3.82251e-17
-1.94755e-16
1.77688e-16
3.32662e-16
-4.25472e-17
-1.96264e-16
1.81084e-16
3.33252e-16
-4.64939e-17
-1.96885e-16
1.839e-16
3.332e-16
-5.05037e-17
-1.96606e-16
1.86378e-16
3.32807e-16
-5.46028e-17
-1.9593e-16
1.8902e-16
3.32105e-16
-5.87709e-17
-1.95062e-16
1.91789e-16
3.30656e-16
-6.23205e-17
-1.9375e-16
1.94282e-16
3.28789e-16
-6.5248e-17
-1.93015e-16
1.96339e-16
3.27204e-16
-6.88516e-17
-1.93045e-16
1.98477e-16
3.26891e-16
-7.227e-17
-1.93951e-16
2.00931e-16
3.26704e-16
-7.60815e-17
-1.93001e-16
2.03479e-16
3.2491e-16
-8.05186e-17
-1.92099e-16
2.06617e-16
3.23001e-16
-8.41537e-17
-1.91626e-16
2.09181e-16
3.22062e-16
-8.7373e-17
-1.91187e-16
2.10695e-16
3.21012e-16
-9.11221e-17
-1.91205e-16
2.12647e-16
3.21165e-16
-9.52322e-17
-1.91592e-16
2.14501e-16
3.21205e-16
-9.8864e-17
-1.91255e-16
2.17141e-16
3.20425e-16
-1.02862e-16
-1.91881e-16
2.19399e-16
3.20787e-16
-1.06897e-16
-1.91958e-16
2.21774e-16
3.20849e-16
-1.11772e-16
-1.92736e-16
2.25111e-16
3.21303e-16
-1.16928e-16
-1.9601e-16
2.28331e-16
3.24079e-16
-1.22436e-16
-1.98809e-16
2.3231e-16
3.26282e-16
-1.27081e-16
-2.01579e-16
2.35886e-16
3.28905e-16
-1.31863e-16
-2.02883e-16
2.38998e-16
3.29396e-16
-1.36955e-16
-2.05583e-16
2.42973e-16
3.31008e-16
-1.41085e-16
-2.08941e-16
2.47083e-16
3.32778e-16
-1.44459e-16
-2.1217e-16
2.50733e-16
3.3368e-16
-1.46284e-16
-2.13979e-16
2.52516e-16
3.33464e-16
-1.46575e-16
-2.15416e-16
2.52787e-16
3.3393e-16
-1.44987e-16
-2.15713e-16
2.51033e-16
3.32904e-16
-1.43206e-16
-2.15388e-16
2.49316e-16
3.31328e-16
-1.4289e-16
-2.1389e-16
2.48794e-16
3.28335e-16
-1.4359e-16
-2.12605e-16
2.49968e-16
3.25247e-16
-1.43707e-16
-2.11829e-16
2.51131e-16
3.23187e-16
-1.43648e-16
-2.10771e-16
2.51899e-16
3.20248e-16
-1.43037e-16
-2.09397e-16
2.51102e-16
3.17929e-16
-1.43041e-16
-2.06862e-16
2.51215e-16
3.13619e-16
-1.42895e-16
-2.053e-16
2.51133e-16
3.11069e-16
-1.44473e-16
-2.03916e-16
2.52436e-16
3.09564e-16
-1.46998e-16
-2.02343e-16
2.54848e-16
3.06812e-16
-1.50104e-16
-1.97732e-16
2.57303e-16
3.01825e-16
-1.53057e-16
-1.94234e-16
2.60441e-16
2.97463e-16
-1.55179e-16
-1.92395e-16
2.62643e-16
2.94483e-16
-1.56483e-16
-1.91508e-16
2.63783e-16
2.92798e-16
-1.58054e-16
-1.9075e-16
2.65327e-16
2.91399e-16
-1.5987e-16
-1.88237e-16
2.678e-16
2.88195e-16
-1.62299e-16
-1.82935e-16
2.70446e-16
2.8227e-16
-1.65306e-16
-1.80744e-16
2.73192e-16
2.79302e-16
-1.65644e-16
-1.77601e-16
2.73394e-16
2.75647e-16
-1.61731e-16
-1.74448e-16
2.70677e-16
2.71304e-16
-1.5755e-16
-1.70059e-16
2.67891e-16
2.64715e-16
-1.54967e-16
-1.67201e-16
2.65829e-16
2.60975e-16
-1.53984e-16
-1.66593e-16
2.65029e-16
2.59408e-16
-1.55149e-16
-1.69198e-16
2.66266e-16
2.61812e-16
-1.56628e-16
-1.73354e-16
2.68541e-16
2.64456e-16
-1.57189e-16
-1.77047e-16
2.70051e-16
2.67351e-16
-1.55708e-16
-1.79547e-16
2.69294e-16
2.6991e-16
-1.56909e-16
-1.81994e-16
2.69415e-16
2.72165e-16
-1.57869e-16
-1.84644e-16
2.70246e-16
2.73552e-16
-1.58009e-16
-1.83931e-16
2.70076e-16
2.71828e-16
-1.55118e-16
-1.82178e-16
2.66889e-16
2.6933e-16
-1.49252e-16
-1.7898e-16
2.61446e-16
2.64429e-16
-1.4161e-16
-1.75976e-16
2.53811e-16
2.60485e-16
-1.35492e-16
-1.74309e-16
2.46239e-16
2.586e-16
-1.29261e-16
-1.72932e-16
2.39346e-16
2.56562e-16
-1.23438e-16
-1.71445e-16
2.33306e-16
2.54941e-16
-1.18556e-16
-1.7189e-16
2.28912e-16
2.54256e-16
-1.1354e-16
-1.73659e-16
2.25974e-16
2.53995e-16
-1.08919e-16
-1.73187e-16
2.22618e-16
2.52606e-16
-1.05696e-16
-1.69903e-16
2.1904e-16
2.50142e-16
-1.03349e-16
-1.67773e-16
2.17358e-16
2.47639e-16
-1.02857e-16
-1.65589e-16
2.16528e-16
2.45617e-16
-1.00254e-16
-1.64225e-16
2.13326e-16
2.44568e-16
-9.85179e-17
-1.64598e-16
2.12018e-16
2.44491e-16
-9.81186e-17
-1.64374e-16
2.09947e-16
2.44904e-16
-9.45251e-17
-1.634e-16
2.06341e-16
2.43942e-16
)
;

boundaryField
{
    inlet
    {
        type            cyclic;
    }
    outlet
    {
        type            cyclic;
    }
    fixedWalls-bottom
    {
        type            zeroGradient;
    }
    fixedWalls-top
    {
        type            symmetry;
    }
    frontAndBack
    {
        type            empty;
    }
}


// ************************************************************************* //
