/*--------------------------------*- C++ -*----------------------------------*\
  =========                 |
  \\      /  F ield         | OpenFOAM: The Open Source CFD Toolbox
   \\    /   O peration     | Website:  https://openfoam.org
    \\  /    A nd           | Version:  10
     \\/     M anipulation  |
\*---------------------------------------------------------------------------*/
FoamFile
{
    format      ascii;
    class       volVectorField;
    location    "10000";
    object      U;
}
// * * * * * * * * * * * * * * * * * * * * * * * * * * * * * * * * * * * * * //

dimensions      [0 1 -1 0 0 0 0];

internalField   nonuniform List<vector> 
400
(
(0.0069201 -3.72069e-18 0)
(0.0069201 1.14909e-19 0)
(0.0069201 5.00319e-21 0)
(0.0069201 -1.27318e-19 0)
(0.0207936 -1.97481e-18 0)
(0.0207936 6.09812e-19 0)
(0.0207936 -1.65442e-19 0)
(0.0207936 -5.69347e-19 0)
(0.0347966 -3.8903e-18 0)
(0.0347966 1.70999e-18 0)
(0.0347966 -4.5578e-19 0)
(0.0347966 -1.63666e-18 0)
(0.048929 -3.66145e-18 0)
(0.048929 3.31397e-18 0)
(0.048929 -1.03209e-18 0)
(0.048929 -3.12525e-18 0)
(0.0631908 -3.03803e-18 0)
(0.0631908 5.48653e-18 0)
(0.0631908 -1.89801e-18 0)
(0.0631908 -5.19244e-18 0)
(0.0775817 -2.07608e-18 0)
(0.0775817 8.33639e-18 0)
(0.0775817 -3.12566e-18 0)
(0.0775817 -7.94795e-18 0)
(0.0921017 -9.38794e-19 0)
(0.0921017 1.20907e-17 0)
(0.0921017 -4.64498e-18 0)
(0.0921017 -1.14606e-17 0)
(0.10675 2.38432e-19 0)
(0.10675 1.65254e-17 0)
(0.10675 -6.2377e-18 0)
(0.10675 -1.58223e-17 0)
(0.121527 2.01526e-18 0)
(0.121527 2.11862e-17 0)
(0.121527 -8.10947e-18 0)
(0.121527 -2.07336e-17 0)
(0.136432 4.21985e-18 0)
(0.136432 2.62186e-17 0)
(0.136432 -1.02358e-17 0)
(0.136432 -2.59712e-17 0)
(0.151464 6.65805e-18 0)
(0.151464 3.14308e-17 0)
(0.151464 -1.27723e-17 0)
(0.151464 -3.12631e-17 0)
(0.166624 9.86175e-18 0)
(0.166624 3.65344e-17 0)
(0.166624 -1.6074e-17 0)
(0.166624 -3.64861e-17 0)
(0.181909 1.38645e-17 0)
(0.181909 4.18445e-17 0)
(0.181909 -1.98494e-17 0)
(0.181909 -4.20996e-17 0)
(0.19732 1.82101e-17 0)
(0.19732 4.80495e-17 0)
(0.19732 -2.37241e-17 0)
(0.19732 -4.85633e-17 0)
(0.212856 2.26939e-17 0)
(0.212856 5.46054e-17 0)
(0.212856 -2.80677e-17 0)
(0.212856 -5.52803e-17 0)
(0.228516 2.77071e-17 0)
(0.228516 6.1354e-17 0)
(0.228516 -3.32403e-17 0)
(0.228516 -6.19341e-17 0)
(0.244298 3.26667e-17 0)
(0.244298 6.86201e-17 0)
(0.244298 -3.86864e-17 0)
(0.244298 -6.85429e-17 0)
(0.260203 3.80733e-17 0)
(0.260203 7.56316e-17 0)
(0.260203 -4.4628e-17 0)
(0.260203 -7.50478e-17 0)
(0.276228 4.39922e-17 0)
(0.276228 8.24477e-17 0)
(0.276228 -5.10589e-17 0)
(0.276228 -8.17698e-17 0)
(0.292373 5.02936e-17 0)
(0.292373 8.89182e-17 0)
(0.292373 -5.76521e-17 0)
(0.292373 -8.82226e-17 0)
(0.308636 5.65097e-17 0)
(0.308636 9.42078e-17 0)
(0.308636 -6.39572e-17 0)
(0.308636 -9.33941e-17 0)
(0.325016 6.26535e-17 0)
(0.325016 9.91726e-17 0)
(0.325016 -7.06514e-17 0)
(0.325016 -9.80713e-17 0)
(0.34151 6.91503e-17 0)
(0.34151 1.03724e-16 0)
(0.34151 -7.74772e-17 0)
(0.34151 -1.02637e-16 0)
(0.358119 7.5589e-17 0)
(0.358119 1.07363e-16 0)
(0.358119 -8.33192e-17 0)
(0.358119 -1.06866e-16 0)
(0.374839 8.12213e-17 0)
(0.374839 1.10972e-16 0)
(0.374839 -8.84702e-17 0)
(0.374839 -1.1104e-16 0)
(0.391669 8.56914e-17 0)
(0.391669 1.13712e-16 0)
(0.391669 -9.22731e-17 0)
(0.391669 -1.14172e-16 0)
(0.408607 8.85948e-17 0)
(0.408607 1.1433e-16 0)
(0.408607 -9.42206e-17 0)
(0.408607 -1.16023e-16 0)
(0.42565 9.0023e-17 0)
(0.42565 1.14792e-16 0)
(0.42565 -9.52409e-17 0)
(0.42565 -1.17059e-16 0)
(0.442797 8.99933e-17 0)
(0.442797 1.15706e-16 0)
(0.442797 -9.51403e-17 0)
(0.442797 -1.17361e-16 0)
(0.460045 8.85767e-17 0)
(0.460045 1.16936e-16 0)
(0.460045 -9.38876e-17 0)
(0.460045 -1.18259e-16 0)
(0.477391 8.61464e-17 0)
(0.477391 1.19134e-16 0)
(0.477391 -9.13998e-17 0)
(0.477391 -1.20331e-16 0)
(0.494833 8.32719e-17 0)
(0.494833 1.2288e-16 0)
(0.494833 -8.85709e-17 0)
(0.494833 -1.24105e-16 0)
(0.512368 8.06052e-17 0)
(0.512368 1.26802e-16 0)
(0.512368 -8.6346e-17 0)
(0.512368 -1.27359e-16 0)
(0.529992 7.654e-17 0)
(0.529992 1.31017e-16 0)
(0.529992 -8.28462e-17 0)
(0.529992 -1.30529e-16 0)
(0.547702 7.21627e-17 0)
(0.547702 1.33823e-16 0)
(0.547702 -7.8324e-17 0)
(0.547702 -1.3309e-16 0)
(0.565496 6.70908e-17 0)
(0.565496 1.37024e-16 0)
(0.565496 -7.2115e-17 0)
(0.565496 -1.37931e-16 0)
(0.58337 6.01154e-17 0)
(0.58337 1.41273e-16 0)
(0.58337 -6.2599e-17 0)
(0.58337 -1.44734e-16 0)
(0.601319 5.33611e-17 0)
(0.601319 1.45448e-16 0)
(0.601319 -5.43882e-17 0)
(0.601319 -1.5007e-16 0)
(0.61934 4.53156e-17 0)
(0.61934 1.49706e-16 0)
(0.61934 -4.69412e-17 0)
(0.61934 -1.53901e-16 0)
(0.637428 3.76174e-17 0)
(0.637428 1.53776e-16 0)
(0.637428 -4.04436e-17 0)
(0.637428 -1.57393e-16 0)
(0.655581 3.11578e-17 0)
(0.655581 1.56459e-16 0)
(0.655581 -3.43771e-17 0)
(0.655581 -1.60622e-16 0)
(0.673792 2.55751e-17 0)
(0.673792 1.59616e-16 0)
(0.673792 -2.73475e-17 0)
(0.673792 -1.64435e-16 0)
(0.692057 2.00816e-17 0)
(0.692057 1.64318e-16 0)
(0.692057 -2.14354e-17 0)
(0.692057 -1.69013e-16 0)
(0.710371 1.54359e-17 0)
(0.710371 1.68757e-16 0)
(0.710371 -1.59099e-17 0)
(0.710371 -1.73928e-16 0)
(0.728729 9.77559e-18 0)
(0.728729 1.69479e-16 0)
(0.728729 -1.0065e-17 0)
(0.728729 -1.7522e-16 0)
(0.747125 1.93466e-18 0)
(0.747125 1.65686e-16 0)
(0.747125 -2.36739e-18 0)
(0.747125 -1.71312e-16 0)
(0.765554 -4.73216e-18 0)
(0.765554 1.60054e-16 0)
(0.765554 4.31188e-18 0)
(0.765554 -1.64434e-16 0)
(0.78401 -1.35438e-17 0)
(0.78401 1.52996e-16 0)
(0.78401 1.04012e-17 0)
(0.78401 -1.54168e-16 0)
(0.802486 -2.26003e-17 0)
(0.802486 1.43456e-16 0)
(0.802486 1.64765e-17 0)
(0.802486 -1.41576e-16 0)
(0.820976 -3.041e-17 0)
(0.820976 1.313e-16 0)
(0.820976 2.26472e-17 0)
(0.820976 -1.27273e-16 0)
(0.839473 -4.07318e-17 0)
(0.839473 1.14763e-16 0)
(0.839473 3.10648e-17 0)
(0.839473 -1.09188e-16 0)
(0.85797 -4.99546e-17 0)
(0.85797 9.67314e-17 0)
(0.85797 4.0021e-17 0)
(0.85797 -9.26111e-17 0)
(0.876459 -5.65391e-17 0)
(0.876459 7.8799e-17 0)
(0.876459 4.68956e-17 0)
(0.876459 -7.75017e-17 0)
(0.894934 -5.91893e-17 0)
(0.894934 6.04647e-17 0)
(0.894934 4.76162e-17 0)
(0.894934 -5.77659e-17 0)
(0.913385 -5.42094e-17 0)
(0.913385 4.39152e-17 0)
(0.913385 4.32359e-17 0)
(0.913385 -3.97648e-17 0)
(0.931805 -4.81746e-17 0)
(0.931805 2.99754e-17 0)
(0.931805 3.79415e-17 0)
(0.931805 -2.77173e-17 0)
(0.950184 -4.31954e-17 0)
(0.950184 2.0677e-17 0)
(0.950184 3.00405e-17 0)
(0.950184 -1.69896e-17 0)
(0.968514 -3.83824e-17 0)
(0.968514 1.67926e-17 0)
(0.968514 2.28345e-17 0)
(0.968514 -9.79302e-18 0)
(0.986785 -3.1254e-17 0)
(0.986785 1.13419e-17 0)
(0.986785 1.70198e-17 0)
(0.986785 -6.08707e-18 0)
(1.00499 -1.9897e-17 0)
(1.00499 6.36542e-18 0)
(1.00499 1.10133e-17 0)
(1.00499 -5.34755e-18 0)
(1.02311 -6.59885e-18 0)
(1.02311 8.58402e-18 0)
(1.02311 1.908e-19 0)
(1.02311 -7.86919e-18 0)
(1.04114 3.4497e-18 0)
(1.04114 1.14064e-17 0)
(1.04114 -1.13081e-17 0)
(1.04114 -9.59684e-18 0)
(1.05908 1.16802e-17 0)
(1.05908 1.51864e-17 0)
(1.05908 -2.17282e-17 0)
(1.05908 -1.13716e-17 0)
(1.0769 2.02388e-17 0)
(1.0769 1.44087e-17 0)
(1.0769 -3.02063e-17 0)
(1.0769 -1.11711e-17 0)
(1.0946 2.83174e-17 0)
(1.0946 1.45236e-17 0)
(1.0946 -3.48863e-17 0)
(1.0946 -1.35561e-17 0)
(1.11216 2.98021e-17 0)
(1.11216 1.76869e-17 0)
(1.11216 -3.47715e-17 0)
(1.11216 -1.59054e-17 0)
(1.12957 2.81394e-17 0)
(1.12957 1.88058e-17 0)
(1.12957 -3.43701e-17 0)
(1.12957 -1.5768e-17 0)
(1.14682 2.51113e-17 0)
(1.14682 1.95216e-17 0)
(1.14682 -3.42968e-17 0)
(1.14682 -1.40451e-17 0)
(1.16389 2.52767e-17 0)
(1.16389 1.4236e-17 0)
(1.16389 -3.51003e-17 0)
(1.16389 -1.05344e-17 0)
(1.18077 2.68268e-17 0)
(1.18077 4.26012e-18 0)
(1.18077 -3.61493e-17 0)
(1.18077 -1.02235e-18 0)
(1.19744 2.29355e-17 0)
(1.19744 -2.64845e-18 0)
(1.19744 -3.45687e-17 0)
(1.19744 9.35153e-18 0)
(1.2139 1.52898e-17 0)
(1.2139 -3.33507e-18 0)
(1.2139 -2.73041e-17 0)
(1.2139 1.18432e-17 0)
(1.23011 1.07321e-18 0)
(1.23011 -3.40789e-18 0)
(1.23011 -1.23286e-17 0)
(1.23011 1.16982e-17 0)
(1.24607 -7.19144e-18 0)
(1.24607 -5.63745e-19 0)
(1.24607 -5.40815e-18 0)
(1.24607 1.15143e-17 0)
(1.26176 -1.44086e-17 0)
(1.26176 6.64188e-18 0)
(1.26176 -1.32665e-18 0)
(1.26176 8.12618e-18 0)
(1.27716 -1.55003e-17 0)
(1.27716 1.41556e-17 0)
(1.27716 -4.37272e-19 0)
(1.27716 -3.05943e-18 0)
(1.29225 -1.52724e-17 0)
(1.29225 3.30652e-17 0)
(1.29225 -1.55842e-18 0)
(1.29225 -2.26507e-17 0)
(1.30701 -1.14962e-17 0)
(1.30701 4.77274e-17 0)
(1.30701 -4.29873e-19 0)
(1.30701 -4.18502e-17 0)
(1.32143 -1.07903e-17 0)
(1.32143 5.10642e-17 0)
(1.32143 4.05893e-18 0)
(1.32143 -4.96796e-17 0)
(1.33548 -2.2116e-17 0)
(1.33548 4.58348e-17 0)
(1.33548 1.37018e-17 0)
(1.33548 -4.39623e-17 0)
(1.34914 -2.49831e-17 0)
(1.34914 3.79431e-17 0)
(1.34914 1.89025e-17 0)
(1.34914 -3.7832e-17 0)
(1.36238 -2.45007e-17 0)
(1.36238 2.84648e-17 0)
(1.36238 2.03084e-17 0)
(1.36238 -2.69488e-17 0)
(1.3752 -2.36316e-17 0)
(1.3752 5.06137e-18 0)
(1.3752 2.41102e-17 0)
(1.3752 -2.31192e-18 0)
(1.38755 -3.37897e-17 0)
(1.38755 -2.49692e-17 0)
(1.38755 3.54182e-17 0)
(1.38755 3.22608e-17 0)
(1.39942 -4.38122e-17 0)
(1.39942 -4.53548e-17 0)
(1.39942 4.63312e-17 0)
(1.39942 5.3155e-17 0)
(1.41078 -4.70407e-17 0)
(1.41078 -5.90789e-17 0)
(1.41078 4.9731e-17 0)
(1.41078 6.64991e-17 0)
(1.42161 -4.77596e-17 0)
(1.42161 -5.78879e-17 0)
(1.42161 5.14825e-17 0)
(1.42161 6.75852e-17 0)
(1.43188 -4.73407e-17 0)
(1.43188 -5.62352e-17 0)
(1.43188 4.99978e-17 0)
(1.43188 6.49256e-17 0)
(1.44155 -4.16772e-17 0)
(1.44155 -5.62506e-17 0)
(1.44155 3.8992e-17 0)
(1.44155 6.0757e-17 0)
(1.45061 -3.45964e-17 0)
(1.45061 -5.04053e-17 0)
(1.45061 3.053e-17 0)
(1.45061 5.6699e-17 0)
(1.45901 -2.58731e-17 0)
(1.45901 -4.20424e-17 0)
(1.45901 1.8227e-17 0)
(1.45901 5.26549e-17 0)
(1.46673 -1.96675e-17 0)
(1.46673 -4.34941e-17 0)
(1.46673 1.03706e-17 0)
(1.46673 5.21985e-17 0)
(1.47374 -2.25597e-17 0)
(1.47374 -5.32062e-17 0)
(1.47374 1.11976e-17 0)
(1.47374 6.02771e-17 0)
(1.48001 -2.1165e-17 0)
(1.48001 -5.25556e-17 0)
(1.48001 1.0707e-17 0)
(1.48001 6.0324e-17 0)
(1.48549 -9.43746e-18 0)
(1.48549 -5.08343e-17 0)
(1.48549 8.75347e-18 0)
(1.48549 5.54077e-17 0)
(1.49016 -5.01176e-18 0)
(1.49016 -3.96822e-17 0)
(1.49016 1.0095e-17 0)
(1.49016 3.99253e-17 0)
(1.49397 -1.02909e-17 0)
(1.49397 -2.25962e-17 0)
(1.49397 1.24636e-17 0)
(1.49397 2.58875e-17 0)
(1.49689 -1.05921e-17 0)
(1.49689 -1.69841e-17 0)
(1.49689 1.35395e-17 0)
(1.49689 2.10445e-17 0)
(1.49887 -1.03628e-17 0)
(1.49887 -1.79784e-17 0)
(1.49887 1.1094e-17 0)
(1.49887 1.88422e-17 0)
(1.49989 -3.04541e-18 0)
(1.49989 -4.42691e-18 0)
(1.49989 5.81254e-18 0)
(1.49989 3.44229e-18 0)
)
;

boundaryField
{
    inlet
    {
        type            cyclic;
    }
    outlet
    {
        type            cyclic;
    }
    fixedWalls-bottom
    {
        type            noSlip;
    }
    fixedWalls-top
    {
        type            symmetry;
    }
    frontAndBack
    {
        type            empty;
    }
}


// ************************************************************************* //
