/*--------------------------------*- C++ -*----------------------------------*\
  =========                 |
  \\      /  F ield         | OpenFOAM: The Open Source CFD Toolbox
   \\    /   O peration     | Website:  https://openfoam.org
    \\  /    A nd           | Version:  10
     \\/     M anipulation  |
\*---------------------------------------------------------------------------*/
FoamFile
{
    format      ascii;
    class       volScalarField;
    location    "5000";
    object      k;
}
// * * * * * * * * * * * * * * * * * * * * * * * * * * * * * * * * * * * * * //

dimensions      [0 2 -2 0 0 0 0];

internalField   nonuniform List<scalar> 
400
(
2.22045e-16
2.22045e-16
2.22045e-16
2.22045e-16
2.22045e-16
2.22045e-16
2.22045e-16
2.22045e-16
2.22045e-16
2.22045e-16
2.22045e-16
2.22045e-16
2.22045e-16
2.22045e-16
2.22045e-16
2.22045e-16
2.22045e-16
2.22045e-16
2.22045e-16
2.22045e-16
2.22045e-16
2.22045e-16
2.22045e-16
2.22045e-16
2.22045e-16
2.22045e-16
2.22045e-16
2.22045e-16
2.22045e-16
2.22045e-16
2.22045e-16
2.22045e-16
2.22045e-16
2.22045e-16
2.22045e-16
2.22045e-16
2.22045e-16
2.22045e-16
2.22045e-16
2.22045e-16
2.22045e-16
2.22045e-16
2.22045e-16
2.22045e-16
2.22045e-16
2.22045e-16
2.22045e-16
2.22045e-16
2.22045e-16
2.22045e-16
2.22045e-16
2.22045e-16
2.22045e-16
2.22045e-16
2.22045e-16
2.22045e-16
2.22045e-16
2.22045e-16
2.22045e-16
2.22045e-16
2.22045e-16
2.22045e-16
2.22045e-16
2.22045e-16
2.22045e-16
2.22045e-16
2.22045e-16
2.22045e-16
2.22045e-16
2.22045e-16
2.22045e-16
2.22045e-16
2.22045e-16
2.22045e-16
2.22045e-16
2.22045e-16
2.22045e-16
2.22045e-16
2.22045e-16
2.22045e-16
2.22045e-16
2.22045e-16
2.22045e-16
2.22045e-16
2.22045e-16
2.22045e-16
2.22045e-16
2.22045e-16
2.22045e-16
2.22045e-16
2.22045e-16
2.22045e-16
2.22045e-16
2.22045e-16
2.22045e-16
2.22045e-16
2.22045e-16
2.22045e-16
2.22045e-16
2.22045e-16
2.22045e-16
2.22045e-16
2.22045e-16
2.22045e-16
2.22045e-16
2.22045e-16
2.22045e-16
2.22045e-16
2.22045e-16
2.22045e-16
2.22045e-16
2.22045e-16
2.22045e-16
2.22045e-16
2.22045e-16
2.22045e-16
2.22045e-16
2.22045e-16
2.22045e-16
2.22045e-16
2.22045e-16
2.22045e-16
2.22045e-16
2.22045e-16
2.22045e-16
2.22045e-16
2.22045e-16
2.22045e-16
2.22045e-16
2.22045e-16
2.22045e-16
2.22045e-16
2.22176e-16
2.22169e-16
2.22149e-16
2.22087e-16
2.2503e-16
2.25026e-16
2.24999e-16
2.24905e-16
2.29088e-16
2.29085e-16
2.29053e-16
2.28928e-16
2.34187e-16
2.34186e-16
2.34149e-16
2.33995e-16
2.40169e-16
2.40169e-16
2.40128e-16
2.39948e-16
2.46876e-16
2.46877e-16
2.46833e-16
2.4663e-16
2.54151e-16
2.54152e-16
2.54107e-16
2.53882e-16
2.61835e-16
2.61837e-16
2.61789e-16
2.61547e-16
2.69768e-16
2.6977e-16
2.69721e-16
2.69466e-16
2.77791e-16
2.77793e-16
2.77743e-16
2.77478e-16
2.85746e-16
2.85747e-16
2.85697e-16
2.85427e-16
2.93478e-16
2.93478e-16
2.93428e-16
2.93157e-16
3.00836e-16
3.00836e-16
3.00786e-16
3.00519e-16
3.07735e-16
3.07733e-16
3.07684e-16
3.07421e-16
3.14094e-16
3.1409e-16
3.1404e-16
3.13784e-16
3.1984e-16
3.19833e-16
3.19783e-16
3.19534e-16
3.24906e-16
3.24897e-16
3.24848e-16
3.24605e-16
3.29237e-16
3.29226e-16
3.29176e-16
3.28941e-16
3.32782e-16
3.3277e-16
3.32719e-16
3.32492e-16
3.35503e-16
3.35491e-16
3.35439e-16
3.3522e-16
3.37369e-16
3.37357e-16
3.37305e-16
3.37095e-16
3.38362e-16
3.38349e-16
3.38298e-16
3.38098e-16
3.38471e-16
3.38457e-16
3.38406e-16
3.38218e-16
3.37695e-16
3.37681e-16
3.3763e-16
3.37456e-16
3.36042e-16
3.36028e-16
3.35978e-16
3.3582e-16
3.33532e-16
3.33516e-16
3.33466e-16
3.3333e-16
3.30188e-16
3.30171e-16
3.3012e-16
3.30011e-16
3.26044e-16
3.26025e-16
3.25967e-16
3.25901e-16
3.21141e-16
3.21119e-16
3.21049e-16
3.2104e-16
3.15571e-16
3.1555e-16
3.15459e-16
3.15519e-16
3.0945e-16
3.09428e-16
3.09322e-16
3.09427e-16
3.02883e-16
3.02857e-16
3.02736e-16
3.02877e-16
2.95977e-16
2.95947e-16
2.95812e-16
2.95979e-16
2.8884e-16
2.88805e-16
2.8866e-16
2.88845e-16
2.81582e-16
2.8154e-16
2.81389e-16
2.81587e-16
2.74315e-16
2.74259e-16
2.74106e-16
2.74309e-16
2.6713e-16
2.67071e-16
2.66914e-16
2.67123e-16
2.60134e-16
2.60073e-16
2.59917e-16
2.60126e-16
2.53422e-16
2.53364e-16
2.5321e-16
2.53417e-16
2.4709e-16
2.47036e-16
2.46886e-16
2.47089e-16
2.41228e-16
2.41181e-16
2.41037e-16
2.41231e-16
2.35929e-16
2.35883e-16
2.35752e-16
2.35934e-16
2.3128e-16
2.31236e-16
2.3112e-16
2.31287e-16
2.27374e-16
2.27334e-16
2.27239e-16
2.27384e-16
2.24312e-16
2.24279e-16
2.24208e-16
2.24324e-16
2.22203e-16
2.22181e-16
2.22138e-16
2.22212e-16
2.22045e-16
2.22045e-16
2.22045e-16
2.22045e-16
2.22045e-16
2.22045e-16
2.22045e-16
2.22045e-16
2.22045e-16
2.22045e-16
2.22045e-16
2.22045e-16
2.22045e-16
2.22045e-16
2.22045e-16
2.22045e-16
2.22045e-16
2.22045e-16
2.22045e-16
2.22045e-16
2.22045e-16
2.22045e-16
2.22045e-16
2.22045e-16
2.22045e-16
2.22045e-16
2.22045e-16
2.22045e-16
2.22045e-16
2.22045e-16
2.22045e-16
2.22045e-16
2.22045e-16
2.22045e-16
2.22045e-16
2.22045e-16
2.22045e-16
2.22045e-16
2.22045e-16
2.22045e-16
2.22045e-16
2.22045e-16
2.22045e-16
2.22045e-16
2.22045e-16
2.22045e-16
2.22045e-16
2.22045e-16
2.22045e-16
2.22045e-16
2.22045e-16
2.22045e-16
2.22045e-16
2.22045e-16
2.22045e-16
2.22045e-16
2.22045e-16
2.22045e-16
2.22045e-16
2.22045e-16
2.22045e-16
2.22045e-16
2.22045e-16
2.22045e-16
2.22045e-16
2.22045e-16
2.22045e-16
2.22045e-16
2.22045e-16
2.22045e-16
2.22045e-16
2.22045e-16
2.22045e-16
2.22045e-16
2.22045e-16
2.22045e-16
2.22045e-16
2.22045e-16
2.22045e-16
2.22045e-16
2.22045e-16
2.22045e-16
2.22045e-16
2.22045e-16
)
;

boundaryField
{
    inlet
    {
        type            cyclic;
    }
    outlet
    {
        type            cyclic;
    }
    fixedWalls-bottom
    {
        type            kqRWallFunction;
        value           uniform 2.22045e-16;
    }
    fixedWalls-top
    {
        type            symmetry;
    }
    frontAndBack
    {
        type            empty;
    }
}


// ************************************************************************* //
