/*--------------------------------*- C++ -*----------------------------------*\
  =========                 |
  \\      /  F ield         | OpenFOAM: The Open Source CFD Toolbox
   \\    /   O peration     | Website:  https://openfoam.org
    \\  /    A nd           | Version:  10
     \\/     M anipulation  |
\*---------------------------------------------------------------------------*/
FoamFile
{
    format      ascii;
    class       volSymmTensorField;
    location    "5000";
    object      R;
}
// * * * * * * * * * * * * * * * * * * * * * * * * * * * * * * * * * * * * * //

dimensions      [0 2 -2 0 0 0 0];

internalField   nonuniform List<symmTensor> 
400
(
(1.4803e-16 -8.5963e-21 -0 1.4803e-16 -0 1.4803e-16)
(1.4803e-16 -8.5963e-21 -0 1.4803e-16 -0 1.4803e-16)
(1.4803e-16 -8.5963e-21 -0 1.4803e-16 -0 1.4803e-16)
(1.4803e-16 -8.5963e-21 -0 1.4803e-16 -0 1.4803e-16)
(1.4803e-16 -5.21765e-20 -0 1.4803e-16 -0 1.4803e-16)
(1.4803e-16 -5.21765e-20 -0 1.4803e-16 -0 1.4803e-16)
(1.4803e-16 -5.21765e-20 -0 1.4803e-16 -0 1.4803e-16)
(1.4803e-16 -5.21765e-20 -0 1.4803e-16 -0 1.4803e-16)
(1.4803e-16 -1.57468e-19 -0 1.4803e-16 -0 1.4803e-16)
(1.4803e-16 -1.57468e-19 -0 1.4803e-16 -0 1.4803e-16)
(1.4803e-16 -1.57468e-19 -0 1.4803e-16 -0 1.4803e-16)
(1.4803e-16 -1.57468e-19 -0 1.4803e-16 -0 1.4803e-16)
(1.4803e-16 -3.36781e-19 -0 1.4803e-16 -0 1.4803e-16)
(1.4803e-16 -3.36781e-19 -0 1.4803e-16 -0 1.4803e-16)
(1.4803e-16 -3.36781e-19 -0 1.4803e-16 -0 1.4803e-16)
(1.4803e-16 -3.36782e-19 -0 1.4803e-16 -0 1.4803e-16)
(1.4803e-16 -5.93469e-19 -0 1.4803e-16 -0 1.4803e-16)
(1.4803e-16 -5.93468e-19 -0 1.4803e-16 -0 1.4803e-16)
(1.4803e-16 -5.93469e-19 -0 1.4803e-16 -0 1.4803e-16)
(1.4803e-16 -5.9348e-19 -0 1.4803e-16 -0 1.4803e-16)
(1.4803e-16 -9.25036e-19 -0 1.4803e-16 -0 1.4803e-16)
(1.4803e-16 -9.25034e-19 -0 1.4803e-16 -0 1.4803e-16)
(1.4803e-16 -9.25036e-19 -0 1.4803e-16 -0 1.4803e-16)
(1.4803e-16 -9.25078e-19 -0 1.4803e-16 -0 1.4803e-16)
(1.4803e-16 -1.32804e-18 -0 1.4803e-16 -0 1.4803e-16)
(1.4803e-16 -1.32803e-18 -0 1.4803e-16 -0 1.4803e-16)
(1.4803e-16 -1.32804e-18 -0 1.4803e-16 -0 1.4803e-16)
(1.4803e-16 -1.32813e-18 -0 1.4803e-16 -0 1.4803e-16)
(1.4803e-16 -1.80336e-18 -0 1.4803e-16 -0 1.4803e-16)
(1.4803e-16 -1.80336e-18 -0 1.4803e-16 -0 1.4803e-16)
(1.4803e-16 -1.80337e-18 -0 1.4803e-16 -0 1.4803e-16)
(1.4803e-16 -1.80349e-18 -0 1.4803e-16 -0 1.4803e-16)
(1.4803e-16 -2.35685e-18 -0 1.4803e-16 -0 1.4803e-16)
(1.4803e-16 -2.35686e-18 -0 1.4803e-16 -0 1.4803e-16)
(1.4803e-16 -2.35687e-18 -0 1.4803e-16 -0 1.4803e-16)
(1.4803e-16 -2.35699e-18 -0 1.4803e-16 -0 1.4803e-16)
(1.4803e-16 -2.99288e-18 -0 1.4803e-16 -0 1.4803e-16)
(1.4803e-16 -2.99289e-18 -0 1.4803e-16 -0 1.4803e-16)
(1.4803e-16 -2.9929e-18 -0 1.4803e-16 -0 1.4803e-16)
(1.4803e-16 -2.99302e-18 -0 1.4803e-16 -0 1.4803e-16)
(1.4803e-16 -3.7138e-18 -0 1.4803e-16 -0 1.4803e-16)
(1.4803e-16 -3.71382e-18 -0 1.4803e-16 -0 1.4803e-16)
(1.4803e-16 -3.71383e-18 -0 1.4803e-16 -0 1.4803e-16)
(1.4803e-16 -3.71395e-18 -0 1.4803e-16 -0 1.4803e-16)
(1.4803e-16 -4.52154e-18 -0 1.4803e-16 -0 1.4803e-16)
(1.4803e-16 -4.52157e-18 -0 1.4803e-16 -0 1.4803e-16)
(1.4803e-16 -4.52156e-18 -0 1.4803e-16 -0 1.4803e-16)
(1.4803e-16 -4.52169e-18 -0 1.4803e-16 -0 1.4803e-16)
(1.4803e-16 -5.41773e-18 -0 1.4803e-16 -0 1.4803e-16)
(1.4803e-16 -5.41776e-18 -0 1.4803e-16 -0 1.4803e-16)
(1.4803e-16 -5.41774e-18 -0 1.4803e-16 -0 1.4803e-16)
(1.4803e-16 -5.41787e-18 -0 1.4803e-16 -0 1.4803e-16)
(1.4803e-16 -6.40377e-18 -0 1.4803e-16 -0 1.4803e-16)
(1.4803e-16 -6.40379e-18 -0 1.4803e-16 -0 1.4803e-16)
(1.4803e-16 -6.40374e-18 -0 1.4803e-16 -0 1.4803e-16)
(1.4803e-16 -6.40388e-18 -0 1.4803e-16 -0 1.4803e-16)
(1.4803e-16 -7.4808e-18 -0 1.4803e-16 -0 1.4803e-16)
(1.4803e-16 -7.48081e-18 -0 1.4803e-16 -0 1.4803e-16)
(1.4803e-16 -7.48073e-18 -0 1.4803e-16 -0 1.4803e-16)
(1.4803e-16 -7.48087e-18 -0 1.4803e-16 -0 1.4803e-16)
(1.4803e-16 -8.6498e-18 -0 1.4803e-16 -0 1.4803e-16)
(1.4803e-16 -8.64978e-18 -0 1.4803e-16 -0 1.4803e-16)
(1.4803e-16 -8.64962e-18 -0 1.4803e-16 -0 1.4803e-16)
(1.4803e-16 -8.64978e-18 -0 1.4803e-16 -0 1.4803e-16)
(1.4803e-16 -9.91147e-18 -0 1.4803e-16 -0 1.4803e-16)
(1.4803e-16 -9.91141e-18 -0 1.4803e-16 -0 1.4803e-16)
(1.4803e-16 -9.91115e-18 -0 1.4803e-16 -0 1.4803e-16)
(1.4803e-16 -9.91131e-18 -0 1.4803e-16 -0 1.4803e-16)
(1.4803e-16 -1.12663e-17 -0 1.4803e-16 -0 1.4803e-16)
(1.4803e-16 -1.12662e-17 -0 1.4803e-16 -0 1.4803e-16)
(1.4803e-16 -1.12658e-17 -0 1.4803e-16 -0 1.4803e-16)
(1.4803e-16 -1.1266e-17 -0 1.4803e-16 -0 1.4803e-16)
(1.4803e-16 -1.27147e-17 -0 1.4803e-16 -0 1.4803e-16)
(1.4803e-16 -1.27145e-17 -0 1.4803e-16 -0 1.4803e-16)
(1.4803e-16 -1.27139e-17 -0 1.4803e-16 -0 1.4803e-16)
(1.4803e-16 -1.2714e-17 -0 1.4803e-16 -0 1.4803e-16)
(1.4803e-16 -1.42566e-17 -0 1.4803e-16 -0 1.4803e-16)
(1.4803e-16 -1.42563e-17 -0 1.4803e-16 -0 1.4803e-16)
(1.4803e-16 -1.42553e-17 -0 1.4803e-16 -0 1.4803e-16)
(1.4803e-16 -1.42554e-17 -0 1.4803e-16 -0 1.4803e-16)
(1.4803e-16 -1.58919e-17 -0 1.4803e-16 -0 1.4803e-16)
(1.4803e-16 -1.58914e-17 -0 1.4803e-16 -0 1.4803e-16)
(1.4803e-16 -1.589e-17 -0 1.4803e-16 -0 1.4803e-16)
(1.4803e-16 -1.589e-17 -0 1.4803e-16 -0 1.4803e-16)
(1.4803e-16 -1.762e-17 -0 1.4803e-16 -0 1.4803e-16)
(1.4803e-16 -1.76194e-17 -0 1.4803e-16 -0 1.4803e-16)
(1.4803e-16 -1.76173e-17 -0 1.4803e-16 -0 1.4803e-16)
(1.4803e-16 -1.76171e-17 -0 1.4803e-16 -0 1.4803e-16)
(1.4803e-16 -1.94401e-17 -0 1.4803e-16 -0 1.4803e-16)
(1.4803e-16 -1.94392e-17 -0 1.4803e-16 -0 1.4803e-16)
(1.4803e-16 -1.94363e-17 -0 1.4803e-16 -0 1.4803e-16)
(1.4803e-16 -1.9436e-17 -0 1.4803e-16 -0 1.4803e-16)
(1.4803e-16 -2.1351e-17 -0 1.4803e-16 -0 1.4803e-16)
(1.4803e-16 -2.13498e-17 -0 1.4803e-16 -0 1.4803e-16)
(1.4803e-16 -2.13458e-17 -0 1.4803e-16 -0 1.4803e-16)
(1.4803e-16 -2.13452e-17 -0 1.4803e-16 -0 1.4803e-16)
(1.4803e-16 -2.33508e-17 -0 1.4803e-16 -0 1.4803e-16)
(1.4803e-16 -2.33493e-17 -0 1.4803e-16 -0 1.4803e-16)
(1.4803e-16 -2.3344e-17 -0 1.4803e-16 -0 1.4803e-16)
(1.4803e-16 -2.33429e-17 -0 1.4803e-16 -0 1.4803e-16)
(1.4803e-16 -2.54373e-17 -0 1.4803e-16 -0 1.4803e-16)
(1.4803e-16 -2.54352e-17 -0 1.4803e-16 -0 1.4803e-16)
(1.4803e-16 -2.54284e-17 -0 1.4803e-16 -0 1.4803e-16)
(1.4803e-16 -2.54266e-17 -0 1.4803e-16 -0 1.4803e-16)
(1.4803e-16 -2.76072e-17 -0 1.4803e-16 -0 1.4803e-16)
(1.4803e-16 -2.76045e-17 -0 1.4803e-16 -0 1.4803e-16)
(1.4803e-16 -2.75958e-17 -0 1.4803e-16 -0 1.4803e-16)
(1.4803e-16 -2.75931e-17 -0 1.4803e-16 -0 1.4803e-16)
(1.4803e-16 -2.98564e-17 -0 1.4803e-16 -0 1.4803e-16)
(1.4803e-16 -2.98531e-17 -0 1.4803e-16 -0 1.4803e-16)
(1.4803e-16 -2.98422e-17 -0 1.4803e-16 -0 1.4803e-16)
(1.4803e-16 -2.98381e-17 -0 1.4803e-16 -0 1.4803e-16)
(1.4803e-16 -3.21796e-17 -0 1.4803e-16 -0 1.4803e-16)
(1.4803e-16 -3.21755e-17 -0 1.4803e-16 -0 1.4803e-16)
(1.4803e-16 -3.21623e-17 -0 1.4803e-16 -0 1.4803e-16)
(1.4803e-16 -3.21564e-17 -0 1.4803e-16 -0 1.4803e-16)
(1.4803e-16 -3.45702e-17 -0 1.4803e-16 -0 1.4803e-16)
(1.4803e-16 -3.45654e-17 -0 1.4803e-16 -0 1.4803e-16)
(1.4803e-16 -3.45496e-17 -0 1.4803e-16 -0 1.4803e-16)
(1.4803e-16 -3.45413e-17 -0 1.4803e-16 -0 1.4803e-16)
(1.4803e-16 -3.70201e-17 -0 1.4803e-16 -0 1.4803e-16)
(1.4803e-16 -3.70144e-17 -0 1.4803e-16 -0 1.4803e-16)
(1.4803e-16 -3.69959e-17 -0 1.4803e-16 -0 1.4803e-16)
(1.4803e-16 -3.69846e-17 -0 1.4803e-16 -0 1.4803e-16)
(1.4803e-16 -3.95193e-17 -0 1.4803e-16 -0 1.4803e-16)
(1.4803e-16 -3.95126e-17 -0 1.4803e-16 -0 1.4803e-16)
(1.4803e-16 -3.94916e-17 -0 1.4803e-16 -0 1.4803e-16)
(1.4803e-16 -3.94763e-17 -0 1.4803e-16 -0 1.4803e-16)
(1.4803e-16 -4.2056e-17 -0 1.4803e-16 -0 1.4803e-16)
(1.4803e-16 -4.20484e-17 -0 1.4803e-16 -0 1.4803e-16)
(1.4803e-16 -4.20248e-17 -0 1.4803e-16 -0 1.4803e-16)
(1.4803e-16 -4.20048e-17 -0 1.4803e-16 -0 1.4803e-16)
(1.48117e-16 -4.46426e-17 -0 1.48117e-16 -0 1.48117e-16)
(1.48113e-16 -4.46326e-17 -0 1.48113e-16 -0 1.48113e-16)
(1.481e-16 -4.46031e-17 -0 1.481e-16 -0 1.481e-16)
(1.48058e-16 -4.45648e-17 -0 1.48058e-16 -0 1.48058e-16)
(1.5002e-16 -4.78185e-17 -0 1.5002e-16 -0 1.5002e-16)
(1.50017e-16 -4.78081e-17 -0 1.50017e-16 -0 1.50017e-16)
(1.49999e-16 -4.77747e-17 -0 1.49999e-16 -0 1.49999e-16)
(1.49937e-16 -4.77218e-17 -0 1.49937e-16 -0 1.49937e-16)
(1.52725e-16 -5.13193e-17 -0 1.52725e-16 -0 1.52725e-16)
(1.52724e-16 -5.13085e-17 -0 1.52724e-16 -0 1.52724e-16)
(1.52702e-16 -5.12717e-17 -0 1.52702e-16 -0 1.52702e-16)
(1.52619e-16 -5.12025e-17 -0 1.52619e-16 -0 1.52619e-16)
(1.56124e-16 -5.51272e-17 -0 1.56124e-16 -0 1.56124e-16)
(1.56124e-16 -5.51161e-17 -0 1.56124e-16 -0 1.56124e-16)
(1.56099e-16 -5.50762e-17 -0 1.56099e-16 -0 1.56099e-16)
(1.55997e-16 -5.49895e-17 -0 1.55997e-16 -0 1.55997e-16)
(1.60112e-16 -5.92137e-17 -0 1.60112e-16 -0 1.60112e-16)
(1.60113e-16 -5.92024e-17 -0 1.60113e-16 -0 1.60113e-16)
(1.60085e-16 -5.91598e-17 -0 1.60085e-16 -0 1.60085e-16)
(1.59966e-16 -5.90547e-17 -0 1.59966e-16 -0 1.59966e-16)
(1.64584e-16 -6.35389e-17 -0 1.64584e-16 -0 1.64584e-16)
(1.64584e-16 -6.35274e-17 -0 1.64584e-16 -0 1.64584e-16)
(1.64556e-16 -6.34824e-17 -0 1.64556e-16 -0 1.64556e-16)
(1.6442e-16 -6.33588e-17 -0 1.6442e-16 -0 1.6442e-16)
(1.69434e-16 -6.80515e-17 -0 1.69434e-16 -0 1.69434e-16)
(1.69435e-16 -6.80399e-17 -0 1.69435e-16 -0 1.69435e-16)
(1.69405e-16 -6.79926e-17 -0 1.69405e-16 -0 1.69405e-16)
(1.69255e-16 -6.78513e-17 -0 1.69255e-16 -0 1.69255e-16)
(1.74556e-16 -7.26888e-17 -0 1.74556e-16 -0 1.74556e-16)
(1.74558e-16 -7.26777e-17 -0 1.74558e-16 -0 1.74558e-16)
(1.74526e-16 -7.26285e-17 -0 1.74526e-16 -0 1.74526e-16)
(1.74365e-16 -7.24705e-17 -0 1.74365e-16 -0 1.74365e-16)
(1.79845e-16 -7.73795e-17 -0 1.79845e-16 -0 1.79845e-16)
(1.79847e-16 -7.73685e-17 -0 1.79847e-16 -0 1.79847e-16)
(1.79814e-16 -7.73179e-17 -0 1.79814e-16 -0 1.79814e-16)
(1.79644e-16 -7.71453e-17 -0 1.79644e-16 -0 1.79644e-16)
(1.85194e-16 -8.20434e-17 -0 1.85194e-16 -0 1.85194e-16)
(1.85195e-16 -8.20326e-17 -0 1.85195e-16 -0 1.85195e-16)
(1.85162e-16 -8.19812e-17 -0 1.85162e-16 -0 1.85162e-16)
(1.84985e-16 -8.17965e-17 -0 1.84985e-16 -0 1.84985e-16)
(1.90497e-16 -8.65953e-17 -0 1.90497e-16 -0 1.90497e-16)
(1.90498e-16 -8.65849e-17 -0 1.90498e-16 -0 1.90498e-16)
(1.90465e-16 -8.65333e-17 -0 1.90465e-16 -0 1.90465e-16)
(1.90284e-16 -8.63398e-17 -0 1.90284e-16 -0 1.90284e-16)
(1.95652e-16 -9.09483e-17 -0 1.95652e-16 -0 1.95652e-16)
(1.95652e-16 -9.09381e-17 -0 1.95652e-16 -0 1.95652e-16)
(1.95619e-16 -9.0887e-17 -0 1.95619e-16 -0 1.95619e-16)
(1.95438e-16 -9.06886e-17 -0 1.95438e-16 -0 1.95438e-16)
(2.00557e-16 -9.32592e-17 -0 2.00557e-16 -0 2.00557e-16)
(2.00557e-16 -9.32591e-17 -0 2.00557e-16 -0 2.00557e-16)
(2.00524e-16 -9.32438e-17 -0 2.00524e-16 -0 2.00524e-16)
(2.00346e-16 -9.31609e-17 -0 2.00346e-16 -0 2.00346e-16)
(2.05157e-16 -9.53978e-17 -0 2.05157e-16 -0 2.05157e-16)
(2.05155e-16 -9.53972e-17 -0 2.05155e-16 -0 2.05155e-16)
(2.05122e-16 -9.5382e-17 -0 2.05122e-16 -0 2.05122e-16)
(2.04948e-16 -9.53006e-17 -0 2.04948e-16 -0 2.04948e-16)
(2.09396e-16 -9.73691e-17 -0 2.09396e-16 -0 2.09396e-16)
(2.09393e-16 -9.73678e-17 -0 2.09393e-16 -0 2.09393e-16)
(2.0936e-16 -9.73525e-17 -0 2.0936e-16 -0 2.0936e-16)
(2.09189e-16 -9.72731e-17 -0 2.09189e-16 -0 2.09189e-16)
(2.13226e-16 -9.91503e-17 -0 2.13226e-16 -0 2.13226e-16)
(2.13222e-16 -9.91482e-17 -0 2.13222e-16 -0 2.13222e-16)
(2.13189e-16 -9.91328e-17 -0 2.13189e-16 -0 2.13189e-16)
(2.13023e-16 -9.90555e-17 -0 2.13023e-16 -0 2.13023e-16)
(2.16604e-16 -1.00721e-16 -0 2.16604e-16 -0 2.16604e-16)
(2.16598e-16 -1.00718e-16 -0 2.16598e-16 -0 2.16598e-16)
(2.16565e-16 -1.00703e-16 -0 2.16565e-16 -0 2.16565e-16)
(2.16403e-16 -1.00628e-16 -0 2.16403e-16 -0 2.16403e-16)
(2.19491e-16 -1.02063e-16 -0 2.19491e-16 -0 2.19491e-16)
(2.19484e-16 -1.0206e-16 -0 2.19484e-16 -0 2.19484e-16)
(2.19451e-16 -1.02044e-16 -0 2.19451e-16 -0 2.19451e-16)
(2.19294e-16 -1.01972e-16 -0 2.19294e-16 -0 2.19294e-16)
(2.21855e-16 -1.03162e-16 -0 2.21855e-16 -0 2.21855e-16)
(2.21847e-16 -1.03159e-16 -0 2.21847e-16 -0 2.21847e-16)
(2.21813e-16 -1.03143e-16 -0 2.21813e-16 -0 2.21813e-16)
(2.21661e-16 -1.03072e-16 -0 2.21661e-16 -0 2.21661e-16)
(2.23668e-16 -1.04006e-16 -0 2.23668e-16 -0 2.23668e-16)
(2.2366e-16 -1.04002e-16 -0 2.2366e-16 -0 2.2366e-16)
(2.23626e-16 -1.03986e-16 -0 2.23626e-16 -0 2.23626e-16)
(2.2348e-16 -1.03918e-16 -0 2.2348e-16 -0 2.2348e-16)
(2.24913e-16 -1.04585e-16 -0 2.24913e-16 -0 2.24913e-16)
(2.24904e-16 -1.04581e-16 -0 2.24904e-16 -0 2.24904e-16)
(2.2487e-16 -1.04565e-16 -0 2.2487e-16 -0 2.2487e-16)
(2.2473e-16 -1.045e-16 -0 2.2473e-16 -0 2.2473e-16)
(2.25575e-16 -1.04892e-16 -0 2.25575e-16 -0 2.25575e-16)
(2.25566e-16 -1.04888e-16 -0 2.25566e-16 -0 2.25566e-16)
(2.25532e-16 -1.04872e-16 -0 2.25532e-16 -0 2.25532e-16)
(2.25399e-16 -1.0481e-16 -0 2.25399e-16 -0 2.25399e-16)
(2.25647e-16 -1.04926e-16 -0 2.25647e-16 -0 2.25647e-16)
(2.25638e-16 -1.04922e-16 -0 2.25638e-16 -0 2.25638e-16)
(2.25604e-16 -1.04906e-16 -0 2.25604e-16 -0 2.25604e-16)
(2.25479e-16 -1.04848e-16 -0 2.25479e-16 -0 2.25479e-16)
(2.2513e-16 -1.04685e-16 -0 2.2513e-16 -0 2.2513e-16)
(2.2512e-16 -1.04681e-16 -0 2.2512e-16 -0 2.2512e-16)
(2.25087e-16 -1.04665e-16 -0 2.25087e-16 -0 2.25087e-16)
(2.24971e-16 -1.04611e-16 -0 2.24971e-16 -0 2.24971e-16)
(2.24028e-16 -1.04173e-16 -0 2.24028e-16 -0 2.24028e-16)
(2.24018e-16 -1.04169e-16 -0 2.24018e-16 -0 2.24018e-16)
(2.23985e-16 -1.04153e-16 -0 2.23985e-16 -0 2.23985e-16)
(2.2388e-16 -1.04104e-16 -0 2.2388e-16 -0 2.2388e-16)
(2.22354e-16 -1.03395e-16 -0 2.22354e-16 -0 2.22354e-16)
(2.22344e-16 -1.0339e-16 -0 2.22344e-16 -0 2.22344e-16)
(2.22311e-16 -1.03375e-16 -0 2.22311e-16 -0 2.22311e-16)
(2.2222e-16 -1.03332e-16 -0 2.2222e-16 -0 2.2222e-16)
(2.20125e-16 -1.02359e-16 -0 2.20125e-16 -0 2.20125e-16)
(2.20114e-16 -1.02353e-16 -0 2.20114e-16 -0 2.20114e-16)
(2.2008e-16 -1.02337e-16 -0 2.2008e-16 -0 2.2008e-16)
(2.20007e-16 -1.02304e-16 -0 2.20007e-16 -0 2.20007e-16)
(2.17363e-16 -1.01075e-16 -0 2.17363e-16 -0 2.17363e-16)
(2.1735e-16 -1.01069e-16 -0 2.1735e-16 -0 2.1735e-16)
(2.17311e-16 -1.01051e-16 -0 2.17311e-16 -0 2.17311e-16)
(2.17267e-16 -1.0103e-16 -0 2.17267e-16 -0 2.17267e-16)
(2.14094e-16 -9.82953e-17 -0 2.14094e-16 -0 2.14094e-16)
(2.14079e-16 -9.82888e-17 -0 2.14079e-16 -0 2.14079e-16)
(2.14032e-16 -9.82988e-17 -0 2.14032e-16 -0 2.14032e-16)
(2.14027e-16 -9.84233e-17 -0 2.14027e-16 -0 2.14027e-16)
(2.1038e-16 -9.52753e-17 -0 2.1038e-16 -0 2.1038e-16)
(2.10367e-16 -9.5268e-17 -0 2.10367e-16 -0 2.10367e-16)
(2.10306e-16 -9.52778e-17 -0 2.10306e-16 -0 2.10306e-16)
(2.10346e-16 -9.54376e-17 -0 2.10346e-16 -0 2.10346e-16)
(2.063e-16 -9.21187e-17 -0 2.063e-16 -0 2.063e-16)
(2.06285e-16 -9.21093e-17 -0 2.06285e-16 -0 2.06285e-16)
(2.06214e-16 -9.2122e-17 -0 2.06214e-16 -0 2.06214e-16)
(2.06285e-16 -9.23081e-17 -0 2.06285e-16 -0 2.06285e-16)
(2.01922e-16 -8.88761e-17 -0 2.01922e-16 -0 2.01922e-16)
(2.01905e-16 -8.88643e-17 -0 2.01905e-16 -0 2.01905e-16)
(2.01824e-16 -8.88809e-17 -0 2.01824e-16 -0 2.01824e-16)
(2.01918e-16 -8.90887e-17 -0 2.01918e-16 -0 2.01918e-16)
(1.97318e-16 -8.55954e-17 -0 1.97318e-16 -0 1.97318e-16)
(1.97298e-16 -8.55844e-17 -0 1.97298e-16 -0 1.97298e-16)
(1.97208e-16 -8.56021e-17 -0 1.97208e-16 -0 1.97208e-16)
(1.97319e-16 -8.58284e-17 -0 1.97319e-16 -0 1.97319e-16)
(1.9256e-16 -8.23211e-17 -0 1.9256e-16 -0 1.9256e-16)
(1.92536e-16 -8.23128e-17 -0 1.92536e-16 -0 1.92536e-16)
(1.9244e-16 -8.23309e-17 -0 1.9244e-16 -0 1.9244e-16)
(1.92564e-16 -8.25729e-17 -0 1.92564e-16 -0 1.92564e-16)
(1.87721e-16 -7.90987e-17 -0 1.87721e-16 -0 1.87721e-16)
(1.87693e-16 -7.9089e-17 -0 1.87693e-16 -0 1.87693e-16)
(1.87593e-16 -7.91068e-17 -0 1.87593e-16 -0 1.87593e-16)
(1.87724e-16 -7.93631e-17 -0 1.87724e-16 -0 1.87724e-16)
(1.82877e-16 -7.59648e-17 -0 1.82877e-16 -0 1.82877e-16)
(1.82839e-16 -7.59515e-17 -0 1.82839e-16 -0 1.82839e-16)
(1.82737e-16 -7.5966e-17 -0 1.82737e-16 -0 1.82737e-16)
(1.82873e-16 -7.62345e-17 -0 1.82873e-16 -0 1.82873e-16)
(1.78087e-16 -7.29461e-17 -0 1.78087e-16 -0 1.78087e-16)
(1.78047e-16 -7.29364e-17 -0 1.78047e-16 -0 1.78047e-16)
(1.77943e-16 -7.29386e-17 -0 1.77943e-16 -0 1.77943e-16)
(1.78082e-16 -7.32201e-17 -0 1.78082e-16 -0 1.78082e-16)
(1.73422e-16 -7.00653e-17 -0 1.73422e-16 -0 1.73422e-16)
(1.73382e-16 -7.00569e-17 -0 1.73382e-16 -0 1.73382e-16)
(1.73278e-16 -7.00562e-17 -0 1.73278e-16 -0 1.73278e-16)
(1.73418e-16 -7.03456e-17 -0 1.73418e-16 -0 1.73418e-16)
(1.68948e-16 -6.73445e-17 -0 1.68948e-16 -0 1.68948e-16)
(1.68909e-16 -6.73406e-17 -0 1.68909e-16 -0 1.68909e-16)
(1.68806e-16 -6.73372e-17 -0 1.68806e-16 -0 1.68806e-16)
(1.68945e-16 -6.76334e-17 -0 1.68945e-16 -0 1.68945e-16)
(1.64727e-16 -6.47974e-17 -0 1.64727e-16 -0 1.64727e-16)
(1.64691e-16 -6.48019e-17 -0 1.64691e-16 -0 1.64691e-16)
(1.64591e-16 -6.47965e-17 -0 1.64591e-16 -0 1.64591e-16)
(1.64726e-16 -6.50987e-17 -0 1.64726e-16 -0 1.64726e-16)
(1.60819e-16 -6.24211e-17 -0 1.60819e-16 -0 1.60819e-16)
(1.60787e-16 -6.24401e-17 -0 1.60787e-16 -0 1.60787e-16)
(1.60692e-16 -6.24346e-17 -0 1.60692e-16 -0 1.60692e-16)
(1.60821e-16 -6.2742e-17 -0 1.60821e-16 -0 1.60821e-16)
(1.57286e-16 -6.02417e-17 -0 1.57286e-16 -0 1.57286e-16)
(1.57256e-16 -6.02394e-17 -0 1.57256e-16 -0 1.57256e-16)
(1.57168e-16 -6.02444e-17 -0 1.57168e-16 -0 1.57168e-16)
(1.57289e-16 -6.05512e-17 -0 1.57289e-16 -0 1.57289e-16)
(1.54186e-16 -5.82112e-17 -0 1.54186e-16 -0 1.54186e-16)
(1.54158e-16 -5.82084e-17 -0 1.54158e-16 -0 1.54158e-16)
(1.5408e-16 -5.82176e-17 -0 1.5408e-16 -0 1.5408e-16)
(1.54192e-16 -5.85225e-17 -0 1.54192e-16 -0 1.54192e-16)
(1.51583e-16 -5.63475e-17 -0 1.51583e-16 -0 1.51583e-16)
(1.51556e-16 -5.63453e-17 -0 1.51556e-16 -0 1.51556e-16)
(1.51492e-16 -5.63592e-17 -0 1.51492e-16 -0 1.51492e-16)
(1.51589e-16 -5.66595e-17 -0 1.51589e-16 -0 1.51589e-16)
(1.49541e-16 -5.46597e-17 -0 1.49541e-16 -0 1.49541e-16)
(1.49519e-16 -5.46588e-17 -0 1.49519e-16 -0 1.49519e-16)
(1.49472e-16 -5.46791e-17 -0 1.49472e-16 -0 1.49472e-16)
(1.49549e-16 -5.49708e-17 -0 1.49549e-16 -0 1.49549e-16)
(1.48135e-16 -5.31584e-17 -0 1.48135e-16 -0 1.48135e-16)
(1.48121e-16 -5.31591e-17 -0 1.48121e-16 -0 1.48121e-16)
(1.48092e-16 -5.31897e-17 -0 1.48092e-16 -0 1.48092e-16)
(1.48141e-16 -5.34666e-17 -0 1.48141e-16 -0 1.48141e-16)
(1.4803e-16 -5.20592e-17 -0 1.4803e-16 -0 1.4803e-16)
(1.4803e-16 -5.20616e-17 -0 1.4803e-16 -0 1.4803e-16)
(1.4803e-16 -5.21135e-17 -0 1.4803e-16 -0 1.4803e-16)
(1.4803e-16 -5.2365e-17 -0 1.4803e-16 -0 1.4803e-16)
(1.4803e-16 -5.09139e-17 -0 1.4803e-16 -0 1.4803e-16)
(1.4803e-16 -5.09056e-17 -0 1.4803e-16 -0 1.4803e-16)
(1.4803e-16 -5.09827e-17 -0 1.4803e-16 -0 1.4803e-16)
(1.4803e-16 -5.12228e-17 -0 1.4803e-16 -0 1.4803e-16)
(1.4803e-16 -4.96737e-17 -0 1.4803e-16 -0 1.4803e-16)
(1.4803e-16 -4.96871e-17 -0 1.4803e-16 -0 1.4803e-16)
(1.4803e-16 -4.97472e-17 -0 1.4803e-16 -0 1.4803e-16)
(1.4803e-16 -4.99977e-17 -0 1.4803e-16 -0 1.4803e-16)
(1.4803e-16 -4.83318e-17 -0 1.4803e-16 -0 1.4803e-16)
(1.4803e-16 -4.83935e-17 -0 1.4803e-16 -0 1.4803e-16)
(1.4803e-16 -4.84074e-17 -0 1.4803e-16 -0 1.4803e-16)
(1.4803e-16 -4.86803e-17 -0 1.4803e-16 -0 1.4803e-16)
(1.4803e-16 -4.6917e-17 -0 1.4803e-16 -0 1.4803e-16)
(1.4803e-16 -4.69675e-17 -0 1.4803e-16 -0 1.4803e-16)
(1.4803e-16 -4.69823e-17 -0 1.4803e-16 -0 1.4803e-16)
(1.4803e-16 -4.72567e-17 -0 1.4803e-16 -0 1.4803e-16)
(1.4803e-16 -4.54132e-17 -0 1.4803e-16 -0 1.4803e-16)
(1.4803e-16 -4.54257e-17 -0 1.4803e-16 -0 1.4803e-16)
(1.4803e-16 -4.54555e-17 -0 1.4803e-16 -0 1.4803e-16)
(1.4803e-16 -4.57181e-17 -0 1.4803e-16 -0 1.4803e-16)
(1.4803e-16 -4.37641e-17 -0 1.4803e-16 -0 1.4803e-16)
(1.4803e-16 -4.37681e-17 -0 1.4803e-16 -0 1.4803e-16)
(1.4803e-16 -4.3814e-17 -0 1.4803e-16 -0 1.4803e-16)
(1.4803e-16 -4.40558e-17 -0 1.4803e-16 -0 1.4803e-16)
(1.4803e-16 -4.1981e-17 -0 1.4803e-16 -0 1.4803e-16)
(1.4803e-16 -4.19726e-17 -0 1.4803e-16 -0 1.4803e-16)
(1.4803e-16 -4.20489e-17 -0 1.4803e-16 -0 1.4803e-16)
(1.4803e-16 -4.22578e-17 -0 1.4803e-16 -0 1.4803e-16)
(1.4803e-16 -4.00509e-17 -0 1.4803e-16 -0 1.4803e-16)
(1.4803e-16 -4.00428e-17 -0 1.4803e-16 -0 1.4803e-16)
(1.4803e-16 -4.01424e-17 -0 1.4803e-16 -0 1.4803e-16)
(1.4803e-16 -4.03127e-17 -0 1.4803e-16 -0 1.4803e-16)
(1.4803e-16 -3.79645e-17 -0 1.4803e-16 -0 1.4803e-16)
(1.4803e-16 -3.79624e-17 -0 1.4803e-16 -0 1.4803e-16)
(1.4803e-16 -3.80601e-17 -0 1.4803e-16 -0 1.4803e-16)
(1.4803e-16 -3.82157e-17 -0 1.4803e-16 -0 1.4803e-16)
(1.4803e-16 -3.57098e-17 -0 1.4803e-16 -0 1.4803e-16)
(1.4803e-16 -3.57109e-17 -0 1.4803e-16 -0 1.4803e-16)
(1.4803e-16 -3.58055e-17 -0 1.4803e-16 -0 1.4803e-16)
(1.4803e-16 -3.59498e-17 -0 1.4803e-16 -0 1.4803e-16)
(1.4803e-16 -3.32743e-17 -0 1.4803e-16 -0 1.4803e-16)
(1.4803e-16 -3.32766e-17 -0 1.4803e-16 -0 1.4803e-16)
(1.4803e-16 -3.33679e-17 -0 1.4803e-16 -0 1.4803e-16)
(1.4803e-16 -3.35014e-17 -0 1.4803e-16 -0 1.4803e-16)
(1.4803e-16 -3.0646e-17 -0 1.4803e-16 -0 1.4803e-16)
(1.4803e-16 -3.06485e-17 -0 1.4803e-16 -0 1.4803e-16)
(1.4803e-16 -3.07352e-17 -0 1.4803e-16 -0 1.4803e-16)
(1.4803e-16 -3.08577e-17 -0 1.4803e-16 -0 1.4803e-16)
(1.4803e-16 -2.7814e-17 -0 1.4803e-16 -0 1.4803e-16)
(1.4803e-16 -2.78163e-17 -0 1.4803e-16 -0 1.4803e-16)
(1.4803e-16 -2.78969e-17 -0 1.4803e-16 -0 1.4803e-16)
(1.4803e-16 -2.8008e-17 -0 1.4803e-16 -0 1.4803e-16)
(1.4803e-16 -2.47696e-17 -0 1.4803e-16 -0 1.4803e-16)
(1.4803e-16 -2.47723e-17 -0 1.4803e-16 -0 1.4803e-16)
(1.4803e-16 -2.48442e-17 -0 1.4803e-16 -0 1.4803e-16)
(1.4803e-16 -2.49436e-17 -0 1.4803e-16 -0 1.4803e-16)
(1.4803e-16 -2.15076e-17 -0 1.4803e-16 -0 1.4803e-16)
(1.4803e-16 -2.15122e-17 -0 1.4803e-16 -0 1.4803e-16)
(1.4803e-16 -2.15719e-17 -0 1.4803e-16 -0 1.4803e-16)
(1.4803e-16 -2.16595e-17 -0 1.4803e-16 -0 1.4803e-16)
(1.4803e-16 -1.8027e-17 -0 1.4803e-16 -0 1.4803e-16)
(1.4803e-16 -1.8037e-17 -0 1.4803e-16 -0 1.4803e-16)
(1.4803e-16 -1.80793e-17 -0 1.4803e-16 -0 1.4803e-16)
(1.4803e-16 -1.81552e-17 -0 1.4803e-16 -0 1.4803e-16)
(1.4803e-16 -1.4333e-17 -0 1.4803e-16 -0 1.4803e-16)
(1.4803e-16 -1.43547e-17 -0 1.4803e-16 -0 1.4803e-16)
(1.4803e-16 -1.43714e-17 -0 1.4803e-16 -0 1.4803e-16)
(1.4803e-16 -1.44363e-17 -0 1.4803e-16 -0 1.4803e-16)
(1.4803e-16 -1.04381e-17 -0 1.4803e-16 -0 1.4803e-16)
(1.4803e-16 -1.04516e-17 -0 1.4803e-16 -0 1.4803e-16)
(1.4803e-16 -1.0469e-17 -0 1.4803e-16 -0 1.4803e-16)
(1.4803e-16 -1.05156e-17 -0 1.4803e-16 -0 1.4803e-16)
(1.4803e-16 -6.3642e-18 -0 1.4803e-16 -0 1.4803e-16)
(1.4803e-16 -6.36684e-18 -0 1.4803e-16 -0 1.4803e-16)
(1.4803e-16 -6.38727e-18 -0 1.4803e-16 -0 1.4803e-16)
(1.4803e-16 -6.41412e-18 -0 1.4803e-16 -0 1.4803e-16)
(1.4803e-16 -2.14401e-18 -0 1.4803e-16 -0 1.4803e-16)
(1.4803e-16 -2.14575e-18 -0 1.4803e-16 -0 1.4803e-16)
(1.4803e-16 -2.15286e-18 -0 1.4803e-16 -0 1.4803e-16)
(1.4803e-16 -2.16241e-18 -0 1.4803e-16 -0 1.4803e-16)
)
;

boundaryField
{
    inlet
    {
        type            cyclic;
    }
    outlet
    {
        type            cyclic;
    }
    fixedWalls-bottom
    {
        type            kqRWallFunction;
        value           uniform (1.4803e-16 -0 -0 1.4803e-16 -0 1.4803e-16);
    }
    fixedWalls-top
    {
        type            symmetry;
    }
    frontAndBack
    {
        type            empty;
    }
}


// ************************************************************************* //
