/*--------------------------------*- C++ -*----------------------------------*\
  =========                 |
  \\      /  F ield         | OpenFOAM: The Open Source CFD Toolbox
   \\    /   O peration     | Website:  https://openfoam.org
    \\  /    A nd           | Version:  10
     \\/     M anipulation  |
\*---------------------------------------------------------------------------*/
FoamFile
{
    format      ascii;
    class       volScalarField;
    location    "10000";
    object      p;
}
// * * * * * * * * * * * * * * * * * * * * * * * * * * * * * * * * * * * * * //

dimensions      [0 2 -2 0 0 0 0];

internalField   nonuniform List<scalar> 
400
(
-8.42402e-18
-2.92433e-16
-2.81979e-16
-2.45167e-17
-2.39464e-17
-2.92702e-16
-2.82154e-16
-2.42415e-17
-2.83679e-17
-2.92992e-16
-2.82359e-16
-2.39475e-17
-2.96706e-17
-2.93265e-16
-2.82512e-16
-2.36813e-17
-2.96468e-17
-2.93549e-16
-2.82705e-16
-2.3443e-17
-2.90681e-17
-2.93869e-16
-2.82836e-16
-2.32603e-17
-2.84105e-17
-2.94214e-16
-2.83059e-16
-2.29282e-17
-2.76114e-17
-2.94408e-16
-2.83351e-16
-2.27427e-17
-2.6864e-17
-2.94539e-16
-2.83637e-16
-2.26264e-17
-2.60854e-17
-2.94616e-16
-2.84029e-16
-2.25719e-17
-2.52826e-17
-2.94627e-16
-2.84363e-16
-2.26421e-17
-2.44961e-17
-2.94748e-16
-2.84838e-16
-2.26199e-17
-2.37016e-17
-2.94717e-16
-2.85465e-16
-2.26011e-17
-2.2824e-17
-2.94245e-16
-2.86055e-16
-2.32099e-17
-2.18417e-17
-2.93549e-16
-2.86876e-16
-2.39828e-17
-2.08283e-17
-2.93173e-16
-2.87711e-16
-2.44585e-17
-2.01989e-17
-2.93314e-16
-2.88317e-16
-2.43229e-17
-1.95254e-17
-2.93322e-16
-2.88956e-16
-2.43427e-17
-1.86732e-17
-2.92975e-16
-2.89801e-16
-2.47382e-17
-1.7669e-17
-2.92526e-16
-2.90855e-16
-2.51686e-17
-1.7163e-17
-2.9211e-16
-2.91513e-16
-2.56443e-17
-1.67029e-17
-2.9121e-16
-2.92051e-16
-2.65611e-17
-1.66595e-17
-2.90359e-16
-2.92212e-16
-2.74627e-17
-1.66996e-17
-2.89011e-16
-2.92574e-16
-2.87339e-17
-1.7228e-17
-2.87455e-16
-2.92091e-16
-3.02793e-17
-1.84082e-17
-2.8598e-16
-2.9103e-16
-3.17819e-17
-1.95583e-17
-2.842e-16
-2.90161e-16
-3.35453e-17
-2.02871e-17
-2.82399e-16
-2.8936e-16
-3.54503e-17
-2.09833e-17
-2.80486e-16
-2.88711e-16
-3.76003e-17
-2.11768e-17
-2.77753e-16
-2.88555e-16
-4.03413e-17
-2.13357e-17
-2.74814e-16
-2.88568e-16
-4.34885e-17
-2.09185e-17
-2.71814e-16
-2.88987e-16
-4.6926e-17
-2.04652e-17
-2.68977e-16
-2.89162e-16
-5.04811e-17
-2.03272e-17
-2.66072e-16
-2.89465e-16
-5.35254e-17
-2.05704e-17
-2.62762e-16
-2.89277e-16
-5.72915e-17
-2.06822e-17
-2.59968e-16
-2.89379e-16
-6.01312e-17
-2.10674e-17
-2.57404e-16
-2.89181e-16
-6.30877e-17
-2.13174e-17
-2.54329e-16
-2.89175e-16
-6.63131e-17
-2.11672e-17
-2.50898e-16
-2.89422e-16
-6.99745e-17
-2.08895e-17
-2.46766e-16
-2.90218e-16
-7.40499e-17
-2.05372e-17
-2.42163e-16
-2.91157e-16
-7.86998e-17
-2.03732e-17
-2.38313e-16
-2.92044e-16
-8.21707e-17
-1.99702e-17
-2.34634e-16
-2.92706e-16
-8.60571e-17
-1.91362e-17
-2.30645e-16
-2.93708e-16
-9.04886e-17
-1.77665e-17
-2.28117e-16
-2.94688e-16
-9.38065e-17
-1.64312e-17
-2.24626e-16
-2.96269e-16
-9.75157e-17
-1.58943e-17
-2.21228e-16
-2.97214e-16
-1.01037e-16
-1.56665e-17
-2.17518e-16
-2.98007e-16
-1.04791e-16
-1.51904e-17
-2.14016e-16
-2.98867e-16
-1.08509e-16
-1.54343e-17
-2.10473e-16
-2.98803e-16
-1.1217e-16
-1.69584e-17
-2.07435e-16
-2.97812e-16
-1.15383e-16
-1.88795e-17
-2.04992e-16
-2.95635e-16
-1.18407e-16
-2.09324e-17
-2.02768e-16
-2.94304e-16
-1.20327e-16
-2.25563e-17
-1.99766e-16
-2.93163e-16
-1.23019e-16
-2.56344e-17
-1.97797e-16
-2.91096e-16
-1.24376e-16
-2.77549e-17
-1.96783e-16
-2.88911e-16
-1.25966e-16
-2.89554e-17
-1.94805e-16
-2.87637e-16
-1.27562e-16
-3.07733e-17
-1.92234e-16
-2.86176e-16
-1.29637e-16
-3.16927e-17
-1.88444e-16
-2.85187e-16
-1.3373e-16
-3.27141e-17
-1.84777e-16
-2.84115e-16
-1.3751e-16
-3.3108e-17
-1.79289e-16
-2.83946e-16
-1.42753e-16
-3.45724e-17
-1.74855e-16
-2.84147e-16
-1.45978e-16
-3.66125e-17
-1.71215e-16
-2.83843e-16
-1.48242e-16
-3.7302e-17
-1.66557e-16
-2.85089e-16
-1.51417e-16
-3.73862e-17
-1.58995e-16
-2.86824e-16
-1.57403e-16
-3.82506e-17
-1.50062e-16
-2.87545e-16
-1.65395e-16
-4.01147e-17
-1.40972e-16
-2.86918e-16
-1.73112e-16
-4.27132e-17
-1.31392e-16
-2.86291e-16
-1.81196e-16
-4.40321e-17
-1.22111e-16
-2.85911e-16
-1.89471e-16
-4.73928e-17
-1.15863e-16
-2.83956e-16
-1.94803e-16
-5.07984e-17
-1.11192e-16
-2.8144e-16
-1.98626e-16
-5.12197e-17
-1.07444e-16
-2.81052e-16
-2.02863e-16
-5.10749e-17
-1.02823e-16
-2.81674e-16
-2.07563e-16
-5.24622e-17
-9.94787e-17
-2.80094e-16
-2.11827e-16
-5.53549e-17
-9.4378e-17
-2.79526e-16
-2.1489e-16
-5.76503e-17
-9.19223e-17
-2.78271e-16
-2.17143e-16
-5.93722e-17
-9.21454e-17
-2.7657e-16
-2.16626e-16
-6.13218e-17
-9.31453e-17
-2.76125e-16
-2.15764e-16
-6.07226e-17
-9.40049e-17
-2.76605e-16
-2.15404e-16
-6.11487e-17
-9.51007e-17
-2.76237e-16
-2.14707e-16
-6.10295e-17
-9.75403e-17
-2.77975e-16
-2.1178e-16
-6.15129e-17
-9.86014e-17
-2.78741e-16
-2.10086e-16
-6.06919e-17
-9.94213e-17
-2.79845e-16
-2.09253e-16
-5.89534e-17
-9.97549e-17
-2.81383e-16
-2.09606e-16
-5.66884e-17
-9.94895e-17
-2.8287e-16
-2.11523e-16
-5.31521e-17
-9.81847e-17
-2.85776e-16
-2.14215e-16
-4.90927e-17
-9.56941e-17
-2.89166e-16
-2.18061e-16
-4.5938e-17
-9.44464e-17
-2.91102e-16
-2.20507e-16
-4.40165e-17
-9.54326e-17
-2.91695e-16
-2.20897e-16
-4.29307e-17
-9.52593e-17
-2.91384e-16
-2.22438e-16
-4.19585e-17
-9.64545e-17
-2.90734e-16
-2.22685e-16
-4.24605e-17
-9.6491e-17
-2.90541e-16
-2.22354e-16
-4.26953e-17
-9.64313e-17
-2.89595e-16
-2.23175e-16
-4.33283e-17
-9.40962e-17
-2.89678e-16
-2.25804e-16
-4.23403e-17
-9.05876e-17
-2.89941e-16
-2.29546e-16
-4.04076e-17
-8.76343e-17
-2.90403e-16
-2.33734e-16
-3.7209e-17
-8.57933e-17
-2.92672e-16
-2.36079e-16
-3.40443e-17
-8.58684e-17
-2.949e-16
-2.3696e-16
-3.31394e-17
-8.26096e-17
-2.95901e-16
-2.3995e-16
-3.20174e-17
-7.91135e-17
-2.97021e-16
-2.43449e-16
)
;

boundaryField
{
    inlet
    {
        type            cyclic;
    }
    outlet
    {
        type            cyclic;
    }
    fixedWalls-bottom
    {
        type            zeroGradient;
    }
    fixedWalls-top
    {
        type            symmetry;
    }
    frontAndBack
    {
        type            empty;
    }
}


// ************************************************************************* //
