/*--------------------------------*- C++ -*----------------------------------*\
  =========                 |
  \\      /  F ield         | OpenFOAM: The Open Source CFD Toolbox
   \\    /   O peration     | Website:  https://openfoam.org
    \\  /    A nd           | Version:  10
     \\/     M anipulation  |
\*---------------------------------------------------------------------------*/
FoamFile
{
    format      ascii;
    class       volScalarField;
    location    "3766";
    object      nut;
}
// * * * * * * * * * * * * * * * * * * * * * * * * * * * * * * * * * * * * * //

dimensions      [0 2 -1 0 0 0 0];

internalField   nonuniform List<scalar> 
400
(
5.27548e-11
5.27482e-11
5.27779e-11
5.27819e-11
9.24675e-09
9.24561e-09
9.25081e-09
9.25152e-09
1.93442e-07
1.93418e-07
1.93526e-07
1.93541e-07
1.46063e-06
1.46043e-06
1.46125e-06
1.46135e-06
6.28637e-06
6.28538e-06
6.28894e-06
6.28925e-06
1.87271e-05
1.87246e-05
1.87353e-05
1.87352e-05
4.27038e-05
4.26984e-05
4.27238e-05
4.27241e-05
7.97403e-05
7.97367e-05
7.97886e-05
7.97895e-05
0.000128589
0.000128606
0.000128694
0.000128695
0.000186705
0.000186767
0.000186896
0.000186896
0.000250014
0.000250032
0.00025016
0.000250189
0.00031528
0.000315297
0.000315444
0.000315483
0.000385297
0.000385317
0.000385483
0.000385528
0.000460102
0.000460122
0.000460302
0.000460352
0.000539413
0.000539431
0.000539619
0.000539668
0.00062296
0.000622976
0.000623164
0.000623207
0.000710498
0.000710514
0.000710696
0.000710727
0.000801647
0.000801669
0.000801842
0.00080185
0.000896293
0.000896328
0.000896489
0.000896467
0.00099429
0.000994341
0.000994492
0.000994432
0.00109543
0.0010955
0.00109564
0.00109554
0.00119948
0.00119956
0.00119969
0.00119954
0.00130614
0.00130623
0.00130636
0.00130615
0.0014151
0.0014152
0.00141533
0.00141507
0.00152601
0.00152613
0.00152625
0.00152595
0.00163848
0.00163862
0.00163873
0.00163839
0.0017521
0.00175226
0.00175236
0.001752
0.00186644
0.00186661
0.00186671
0.00186634
0.00198106
0.00198125
0.00198134
0.00198096
0.00209554
0.00209573
0.00209581
0.00209544
0.00220944
0.00220964
0.0022097
0.00220935
0.00232238
0.00232257
0.00232261
0.00232228
0.00243398
0.00243416
0.00243419
0.00243389
0.00254396
0.00254412
0.00254413
0.00254386
0.00265207
0.0026522
0.00265219
0.00265197
0.00275814
0.00275822
0.0027582
0.00275804
0.0028621
0.00286213
0.00286211
0.00286202
0.00296395
0.00296394
0.00296397
0.00296393
0.00306383
0.00306381
0.00306393
0.00306391
0.0031619
0.00316196
0.00316221
0.00316212
0.00325839
0.00325866
0.00325909
0.00325877
0.00335341
0.00335408
0.00335465
0.0033539
0.00344674
0.00344791
0.0034485
0.00344718
0.00353729
0.00353878
0.00353917
0.00353746
0.0036222
0.00362309
0.00362309
0.00362198
0.00369524
0.00369317
0.00369285
0.00369503
0.00375287
0.00375057
0.00375039
0.00375286
0.00380632
0.00380385
0.00380376
0.00380653
0.00385562
0.00385302
0.003853
0.00385607
0.00390079
0.00389812
0.00389813
0.00390149
0.00394188
0.00393915
0.00393917
0.00394282
0.00397891
0.00397615
0.00397615
0.00398007
0.0040119
0.00400913
0.00400909
0.00401325
0.00404085
0.0040381
0.00403802
0.00404239
0.0040658
0.00406309
0.00406295
0.00406752
0.00408678
0.00408412
0.00408393
0.00408867
0.00410383
0.00410122
0.004101
0.00410589
0.00411698
0.00411442
0.00411417
0.00411919
0.00412623
0.00412372
0.00412344
0.00412857
0.00413152
0.00412903
0.00412873
0.00413398
0.00413275
0.00413029
0.00412995
0.00413531
0.00413008
0.00412768
0.00412729
0.00413271
0.00412371
0.00412141
0.00412098
0.00412642
0.00411368
0.00411149
0.00411103
0.00411649
0.00410003
0.00409796
0.00409751
0.00410296
0.00408283
0.00408084
0.00408048
0.00408589
0.00406213
0.00406011
0.00406003
0.00406536
0.00403801
0.00403628
0.00403611
0.00404143
0.00401053
0.00400933
0.0040088
0.00401417
0.00397979
0.00397878
0.0039783
0.00398367
0.00394582
0.00394499
0.00394457
0.00394994
0.00390862
0.00390794
0.00390763
0.00391297
0.00386813
0.00386754
0.00386745
0.0038727
0.00382425
0.00382353
0.00382394
0.00382905
0.00377691
0.00377645
0.00377687
0.00378197
0.00372621
0.00372611
0.00372638
0.0037315
0.00367225
0.00367281
0.00367248
0.00367775
0.00361508
0.00361563
0.00361537
0.00362075
0.00355469
0.00355515
0.00355513
0.00356041
0.00349128
0.00349122
0.00349168
0.00349679
0.00342378
0.00342504
0.0034247
0.00343005
0.00335393
0.00335512
0.00335481
0.00336036
0.00328154
0.00328241
0.00328242
0.00328786
0.00320696
0.00320703
0.00320775
0.00321294
0.00312931
0.00313094
0.00313021
0.00313616
0.00305061
0.00305225
0.00305126
0.00305775
0.00297091
0.00297246
0.00297173
0.00297799
0.002891
0.00289211
0.00289211
0.00289756
0.00281211
0.0028117
0.00281307
0.0028173
0.00273354
0.00273423
0.00273405
0.00273845
0.00265709
0.00265797
0.00265743
0.00266185
0.00258399
0.00258502
0.0025842
0.0025887
0.00251565
0.00251682
0.00251577
0.00252037
0.00245354
0.0024549
0.00245362
0.00245838
0.00239915
0.00240075
0.00239924
0.00240425
0.00235378
0.00235581
0.00235402
0.00235943
0.00231857
0.00232107
0.00231908
0.00232494
0.00229538
0.00229641
0.00229485
0.00230099
0.00228241
0.00228192
0.0022806
0.00228673
0.00227733
0.00227619
0.00227459
0.00228054
)
;

boundaryField
{
    inlet
    {
        type            cyclic;
    }
    outlet
    {
        type            cyclic;
    }
    fixedWalls-bottom
    {
        type            nutkWallFunction;
        Cmu             0.09;
        kappa           0.41;
        E               9.8;
        value           uniform 0;
    }
    fixedWalls-top
    {
        type            symmetry;
    }
    frontAndBack
    {
        type            empty;
    }
}


// ************************************************************************* //
