/*--------------------------------*- C++ -*----------------------------------*\
  =========                 |
  \\      /  F ield         | OpenFOAM: The Open Source CFD Toolbox
   \\    /   O peration     | Website:  https://openfoam.org
    \\  /    A nd           | Version:  10
     \\/     M anipulation  |
\*---------------------------------------------------------------------------*/
FoamFile
{
    format      ascii;
    class       volScalarField;
    location    "3766";
    object      omega;
}
// * * * * * * * * * * * * * * * * * * * * * * * * * * * * * * * * * * * * * //

dimensions      [0 0 -1 0 0 0 0];

internalField   nonuniform List<scalar> 
400
(
5114.2
5114.2
5114.2
5114.2
875.359
875.359
875.359
875.359
296.008
296.009
296.009
296.009
141.585
141.588
141.589
141.589
83.2814
83.2857
83.2857
83.2872
56.2666
56.27
56.2696
56.2732
41.8292
41.8329
41.8314
41.8337
33.1675
33.1694
33.1659
33.1675
27.4452
27.4433
27.4386
27.44
23.3702
23.3645
23.3595
23.3608
20.3038
20.2954
20.2907
20.2918
17.8955
17.8854
17.8811
17.8822
15.938
15.9276
15.9238
15.9248
14.3062
14.2966
14.2929
14.2939
12.9197
12.9116
12.9082
12.9091
11.7249
11.7184
11.7155
11.7164
10.6841
10.679
10.6769
10.6779
9.77017
9.76595
9.76473
9.7664
8.96258
8.95861
8.95838
8.96056
8.24521
8.24165
8.24173
8.24454
7.60516
7.60227
7.60257
7.60592
7.03249
7.03049
7.03092
7.03471
6.51932
6.51805
6.51861
6.52273
6.05886
6.05815
6.05881
6.06317
5.64532
5.64501
5.64572
5.65023
5.27365
5.2736
5.27437
5.27894
4.93947
4.93957
4.94038
4.9449
4.63889
4.63905
4.63988
4.64425
4.36851
4.36853
4.36939
4.37352
4.12487
4.12495
4.12577
4.12961
3.90528
3.90541
3.90618
3.90967
3.70716
3.70731
3.70803
3.71116
3.52817
3.52833
3.52899
3.53174
3.36618
3.36635
3.36696
3.3693
3.21929
3.21945
3.22004
3.22194
3.08578
3.08593
3.08656
3.08793
2.96412
2.96429
2.96502
2.96573
2.85295
2.85313
2.85401
2.85401
2.751
2.75117
2.75211
2.75169
2.6572
2.65741
2.6584
2.65771
2.5707
2.57098
2.57196
2.5711
2.4907
2.49113
2.49202
2.49104
2.41653
2.41716
2.41787
2.41681
2.34758
2.34843
2.34892
2.34779
2.28331
2.28437
2.28465
2.28344
2.22325
2.22447
2.22457
2.2233
2.16698
2.16828
2.16829
2.16693
2.11414
2.11548
2.11542
2.11396
2.0644
2.06574
2.06564
2.06409
2.01746
2.01879
2.01867
2.01704
1.97307
1.97438
1.97425
1.97255
1.93101
1.93229
1.93216
1.93039
1.89107
1.89232
1.8922
1.89038
1.85308
1.85429
1.85419
1.85233
1.81688
1.81803
1.81795
1.81607
1.78231
1.78341
1.78335
1.78144
1.74924
1.75029
1.75023
1.74831
1.71752
1.71853
1.71849
1.71656
1.68707
1.68804
1.68801
1.68607
1.65781
1.65875
1.65873
1.65679
1.62969
1.63061
1.6306
1.62865
1.60258
1.60346
1.60347
1.60153
1.57631
1.57715
1.57717
1.57525
1.55083
1.55161
1.55164
1.54975
1.52604
1.52677
1.5268
1.52494
1.50189
1.50258
1.50258
1.50075
1.4783
1.479
1.4789
1.47712
1.45522
1.4558
1.45575
1.45398
1.43258
1.43297
1.43305
1.43128
1.41033
1.41065
1.41071
1.40895
1.38842
1.38868
1.38872
1.38697
1.36684
1.36705
1.36706
1.36532
1.34559
1.34577
1.3457
1.34401
1.32469
1.32491
1.32468
1.32303
1.30414
1.30427
1.30404
1.3024
1.2839
1.2839
1.28373
1.28209
1.26392
1.2637
1.26374
1.26204
1.24418
1.24397
1.24398
1.24225
1.22469
1.22451
1.22444
1.22273
1.20537
1.20537
1.20514
1.20349
1.18662
1.18616
1.18621
1.18446
1.16784
1.1674
1.16744
1.16562
1.14913
1.14881
1.14874
1.14694
1.13044
1.13039
1.13008
1.12835
1.11214
1.11153
1.11174
1.10972
1.0936
1.093
1.09329
1.09107
1.07496
1.07439
1.07459
1.07244
1.0561
1.05569
1.05562
1.05374
1.03682
1.03695
1.03639
1.03493
1.01765
1.01737
1.01739
1.01584
0.99833
0.997977
0.998131
0.996554
0.978874
0.978465
0.978726
0.977099
0.959355
0.958891
0.959245
0.957561
0.939935
0.939401
0.939844
0.938091
0.920901
0.920273
0.920804
0.918949
0.902705
0.901919
0.902553
0.900547
0.885937
0.884981
0.885684
0.883522
0.870923
0.870531
0.871059
0.868811
0.859288
0.859475
0.859899
0.857673
0.85267
0.853097
0.853619
0.851477
)
;

boundaryField
{
    inlet
    {
        type            cyclic;
    }
    outlet
    {
        type            cyclic;
    }
    fixedWalls-bottom
    {
        beta1           0.075;
        blended         0;
        type            omegaWallFunction;
        value           uniform 5114.2;
    }
    fixedWalls-top
    {
        type            symmetry;
    }
    frontAndBack
    {
        type            empty;
    }
}


// ************************************************************************* //
