/*--------------------------------*- C++ -*----------------------------------*\
  =========                 |
  \\      /  F ield         | OpenFOAM: The Open Source CFD Toolbox
   \\    /   O peration     | Website:  https://openfoam.org
    \\  /    A nd           | Version:  10
     \\/     M anipulation  |
\*---------------------------------------------------------------------------*/
FoamFile
{
    format      ascii;
    class       volSymmTensorField;
    location    "3766";
    object      R;
}
// * * * * * * * * * * * * * * * * * * * * * * * * * * * * * * * * * * * * * //

dimensions      [0 2 -2 0 0 0 0];

internalField   nonuniform List<symmTensor> 
400
(
(1.79865e-07 -6.08831e-10 -0 1.79865e-07 -0 1.79865e-07)
(1.79843e-07 -6.08737e-10 -0 1.79843e-07 -0 1.79843e-07)
(1.79944e-07 -6.09101e-10 -0 1.79944e-07 -0 1.79944e-07)
(1.79958e-07 -6.0917e-10 -0 1.79958e-07 -0 1.79958e-07)
(5.39615e-06 -1.06202e-07 -0 5.39615e-06 -0 5.39615e-06)
(5.39548e-06 -1.06186e-07 -0 5.39548e-06 -0 5.39548e-06)
(5.39851e-06 -1.0625e-07 -0 5.39852e-06 -0 5.39852e-06)
(5.39893e-06 -1.06262e-07 -0 5.39893e-06 -0 5.39893e-06)
(3.81736e-05 -2.20854e-06 -0 3.81736e-05 -0 3.81736e-05)
(3.81689e-05 -2.20821e-06 -0 3.81689e-05 -0 3.81689e-05)
(3.81904e-05 -2.20954e-06 -0 3.81904e-05 -0 3.81904e-05)
(3.81933e-05 -2.20978e-06 -0 3.81933e-05 -0 3.81933e-05)
(0.00013787 -1.65047e-05 -0 0.000137869 -0 0.000137869)
(0.000137853 -1.6502e-05 -0 0.000137853 -0 0.000137853)
(0.000137931 -1.65121e-05 -0 0.000137931 -0 0.000137931)
(0.000137941 -1.65138e-05 -0 0.000137941 -0 0.000137941)
(0.000349025 -6.95117e-05 -0 0.000349025 -0 0.000349025)
(0.000348988 -6.94998e-05 -0 0.000348988 -0 0.000348988)
(0.000349186 -6.95426e-05 -0 0.000349186 -0 0.000349186)
(0.000349209 -6.95478e-05 -0 0.000349209 -0 0.000349209)
(0.000702476 -0.000198505 -0 0.000702474 -0 0.000702475)
(0.000702421 -0.000198478 -0 0.000702421 -0 0.000702421)
(0.000702817 -0.000198599 -0 0.000702819 -0 0.000702818)
(0.000702861 -0.000198602 -0 0.00070286 -0 0.000702861)
(0.00119085 -0.00042236 -0 0.00119084 -0 0.00119085)
(0.0011908 -0.000422314 -0 0.0011908 -0 0.0011908)
(0.00119146 -0.000422572 -0 0.00119147 -0 0.00119146)
(0.00119154 -0.000422579 -0 0.00119154 -0 0.00119154)
(0.00176319 -0.000717185 -0 0.00176319 -0 0.00176319)
(0.00176321 -0.00071717 -0 0.00176322 -0 0.00176321)
(0.00176417 -0.000717622 -0 0.00176417 -0 0.00176417)
(0.00176428 -0.000717627 -0 0.00176428 -0 0.00176428)
(0.00235277 -0.0010333 -0 0.00235276 -0 0.00235276)
(0.00235291 -0.00103344 -0 0.00235291 -0 0.00235291)
(0.00235412 -0.00103408 -0 0.00235413 -0 0.00235412)
(0.00235426 -0.00103407 -0 0.00235426 -0 0.00235426)
(0.00290889 -0.00133088 -0 0.00290887 -0 0.00290888)
(0.00290915 -0.00133131 -0 0.00290915 -0 0.00290915)
(0.00291054 -0.00133211 -0 0.00291055 -0 0.00291054)
(0.0029107 -0.00133207 -0 0.00291069 -0 0.00291069)
(0.00340658 -0.00158405 -0 0.00340656 -0 0.00340657)
(0.00340691 -0.00158421 -0 0.00340691 -0 0.00340691)
(0.0034084 -0.00158491 -0 0.00340841 -0 0.00340841)
(0.00340857 -0.00158499 -0 0.00340857 -0 0.00340857)
(0.00384087 -0.001786 -0 0.00384086 -0 0.00384087)
(0.00384129 -0.0017862 -0 0.00384129 -0 0.00384129)
(0.00384285 -0.00178693 -0 0.00384286 -0 0.00384286)
(0.00384301 -0.001787 -0 0.00384301 -0 0.00384301)
(0.00421592 -0.0019604 -0 0.00421592 -0 0.00421592)
(0.00421638 -0.00196062 -0 0.00421638 -0 0.00421638)
(0.00421797 -0.00196136 -0 0.00421798 -0 0.00421798)
(0.0042181 -0.00196142 -0 0.0042181 -0 0.0042181)
(0.00453684 -0.00210964 -0 0.00453684 -0 0.00453684)
(0.0045373 -0.00210985 -0 0.0045373 -0 0.0045373)
(0.00453887 -0.00211058 -0 0.00453888 -0 0.00453888)
(0.00453896 -0.00211063 -0 0.00453896 -0 0.00453896)
(0.0048098 -0.00223659 -0 0.00480981 -0 0.00480981)
(0.00481024 -0.0022368 -0 0.00481024 -0 0.00481024)
(0.00481176 -0.0022375 -0 0.00481176 -0 0.00481176)
(0.0048118 -0.00223752 -0 0.0048118 -0 0.0048118)
(0.00504111 -0.00234423 -0 0.00504112 -0 0.00504112)
(0.00504151 -0.00234441 -0 0.00504152 -0 0.00504151)
(0.00504294 -0.00234508 -0 0.00504293 -0 0.00504294)
(0.00504293 -0.00234507 -0 0.00504292 -0 0.00504293)
(0.00523658 -0.00243531 -0 0.00523659 -0 0.00523659)
(0.00523694 -0.00243548 -0 0.00523695 -0 0.00523695)
(0.00523826 -0.00243609 -0 0.00523825 -0 0.00523826)
(0.00523819 -0.00243605 -0 0.00523818 -0 0.00523818)
(0.00540132 -0.00251182 -0 0.00540134 -0 0.00540133)
(0.00540166 -0.00251197 -0 0.00540167 -0 0.00540167)
(0.00540286 -0.00251252 -0 0.00540284 -0 0.00540285)
(0.0054027 -0.00251245 -0 0.00540269 -0 0.0054027)
(0.00553973 -0.00257608 -0 0.00553976 -0 0.00553975)
(0.00554006 -0.00257622 -0 0.00554008 -0 0.00554007)
(0.00554113 -0.00257671 -0 0.0055411 -0 0.00554112)
(0.00554089 -0.0025766 -0 0.00554087 -0 0.00554088)
(0.00565549 -0.00262985 -0 0.00565552 -0 0.0056555)
(0.0056558 -0.00263 -0 0.00565582 -0 0.00565581)
(0.00565675 -0.00263043 -0 0.00565672 -0 0.00565674)
(0.00565642 -0.00263027 -0 0.0056564 -0 0.00565641)
(0.00575167 -0.00267455 -0 0.0057517 -0 0.00575168)
(0.00575196 -0.00267469 -0 0.00575198 -0 0.00575197)
(0.0057528 -0.00267507 -0 0.00575277 -0 0.00575278)
(0.00575237 -0.00267487 -0 0.00575234 -0 0.00575236)
(0.00583082 -0.00271135 -0 0.00583085 -0 0.00583084)
(0.0058311 -0.00271148 -0 0.00583112 -0 0.00583111)
(0.00583183 -0.0027118 -0 0.0058318 -0 0.00583181)
(0.0058313 -0.00271156 -0 0.00583127 -0 0.00583129)
(0.00589509 -0.00274123 -0 0.00589513 -0 0.00589511)
(0.00589535 -0.00274135 -0 0.00589538 -0 0.00589537)
(0.00589598 -0.00274163 -0 0.00589595 -0 0.00589597)
(0.00589537 -0.00274134 -0 0.00589534 -0 0.00589535)
(0.00594628 -0.00276503 -0 0.00594631 -0 0.00594629)
(0.00594653 -0.00276514 -0 0.00594656 -0 0.00594654)
(0.00594707 -0.00276538 -0 0.00594704 -0 0.00594705)
(0.00594637 -0.00276506 -0 0.00594635 -0 0.00594636)
(0.00598589 -0.00278345 -0 0.00598592 -0 0.00598591)
(0.00598615 -0.00278357 -0 0.00598618 -0 0.00598617)
(0.0059866 -0.00278376 -0 0.00598657 -0 0.00598659)
(0.00598585 -0.00278342 -0 0.00598582 -0 0.00598584)
(0.00601524 -0.00279709 -0 0.00601526 -0 0.00601525)
(0.00601552 -0.00279722 -0 0.00601554 -0 0.00601553)
(0.00601588 -0.00279738 -0 0.00601585 -0 0.00601587)
(0.00601509 -0.00279701 -0 0.00601507 -0 0.00601508)
(0.00603543 -0.00280648 -0 0.00603545 -0 0.00603544)
(0.00603573 -0.00280662 -0 0.00603575 -0 0.00603574)
(0.00603601 -0.00280674 -0 0.00603599 -0 0.006036)
(0.0060352 -0.00280637 -0 0.00603518 -0 0.00603519)
(0.00604742 -0.00281206 -0 0.00604744 -0 0.00604743)
(0.00604774 -0.0028122 -0 0.00604776 -0 0.00604775)
(0.00604796 -0.0028123 -0 0.00604794 -0 0.00604795)
(0.00604715 -0.00281192 -0 0.00604713 -0 0.00604714)
(0.00605206 -0.00281421 -0 0.00605207 -0 0.00605207)
(0.00605239 -0.00281437 -0 0.00605241 -0 0.0060524)
(0.00605256 -0.00281444 -0 0.00605254 -0 0.00605255)
(0.00605176 -0.00281406 -0 0.00605174 -0 0.00605175)
(0.00605006 -0.00281328 -0 0.00605008 -0 0.00605007)
(0.0060504 -0.00281344 -0 0.00605041 -0 0.00605041)
(0.00605053 -0.00281349 -0 0.00605051 -0 0.00605052)
(0.00604975 -0.00281313 -0 0.00604974 -0 0.00604974)
(0.00604207 -0.00280957 -0 0.00604208 -0 0.00604208)
(0.00604242 -0.00280973 -0 0.00604242 -0 0.00604242)
(0.0060425 -0.00280976 -0 0.00604249 -0 0.00604249)
(0.00604176 -0.00280941 -0 0.00604175 -0 0.00604175)
(0.00602865 -0.00280332 -0 0.00602866 -0 0.00602865)
(0.00602899 -0.00280348 -0 0.006029 -0 0.006029)
(0.00602904 -0.0028035 -0 0.00602903 -0 0.00602904)
(0.00602834 -0.00280318 -0 0.00602834 -0 0.00602834)
(0.00601029 -0.00279479 -0 0.0060103 -0 0.0060103)
(0.00601063 -0.00279494 -0 0.00601063 -0 0.00601063)
(0.00601065 -0.00279495 -0 0.00601064 -0 0.00601064)
(0.00601 -0.00279465 -0 0.00601 -0 0.00601)
(0.00598744 -0.00278416 -0 0.00598745 -0 0.00598744)
(0.00598776 -0.00278431 -0 0.00598776 -0 0.00598776)
(0.00598776 -0.0027843 -0 0.00598774 -0 0.00598775)
(0.00598716 -0.00278403 -0 0.00598716 -0 0.00598716)
(0.00596048 -0.00277163 -0 0.0059605 -0 0.00596049)
(0.00596078 -0.00277176 -0 0.00596078 -0 0.00596078)
(0.00596076 -0.00277175 -0 0.00596075 -0 0.00596075)
(0.00596023 -0.00277151 -0 0.00596023 -0 0.00596023)
(0.00592978 -0.00275735 -0 0.0059298 -0 0.00592979)
(0.00593005 -0.00275747 -0 0.00593005 -0 0.00593005)
(0.00593001 -0.00275745 -0 0.00592999 -0 0.00593)
(0.00592954 -0.00275724 -0 0.00592954 -0 0.00592954)
(0.00589565 -0.00274148 -0 0.00589567 -0 0.00589566)
(0.00589589 -0.00274159 -0 0.00589589 -0 0.00589589)
(0.00589582 -0.00274155 -0 0.0058958 -0 0.00589581)
(0.00589542 -0.00274137 -0 0.00589542 -0 0.00589542)
(0.00585838 -0.00272415 -0 0.0058584 -0 0.00585839)
(0.00585858 -0.00272424 -0 0.00585858 -0 0.00585858)
(0.00585849 -0.00272419 -0 0.00585847 -0 0.00585848)
(0.00585816 -0.00272405 -0 0.00585816 -0 0.00585816)
(0.00581824 -0.00270549 -0 0.00581827 -0 0.00581825)
(0.0058184 -0.00270556 -0 0.00581841 -0 0.00581841)
(0.0058183 -0.0027055 -0 0.00581826 -0 0.00581828)
(0.00581803 -0.00270539 -0 0.00581803 -0 0.00581803)
(0.00577549 -0.00268561 -0 0.00577553 -0 0.00577551)
(0.00577562 -0.00268566 -0 0.00577561 -0 0.00577561)
(0.00577548 -0.00268559 -0 0.00577544 -0 0.00577546)
(0.00577529 -0.00268551 -0 0.00577529 -0 0.00577529)
(0.00573037 -0.00266463 -0 0.00573042 -0 0.0057304)
(0.00573046 -0.00266466 -0 0.00573044 -0 0.00573045)
(0.0057303 -0.00266458 -0 0.00573025 -0 0.00573028)
(0.00573017 -0.00266453 -0 0.00573019 -0 0.00573018)
(0.00568312 -0.00264267 -0 0.00568318 -0 0.00568315)
(0.00568319 -0.00264267 -0 0.00568314 -0 0.00568317)
(0.005683 -0.00264258 -0 0.00568294 -0 0.00568297)
(0.00568292 -0.00264257 -0 0.00568297 -0 0.00568294)
(0.00563398 -0.00261981 -0 0.00563403 -0 0.005634)
(0.00563403 -0.0026198 -0 0.00563394 -0 0.00563399)
(0.00563381 -0.00261971 -0 0.00563375 -0 0.00563378)
(0.00563376 -0.00261972 -0 0.00563385 -0 0.0056338)
(0.00558314 -0.00259617 -0 0.00558317 -0 0.00558316)
(0.0055832 -0.00259616 -0 0.00558305 -0 0.00558313)
(0.00558293 -0.00259606 -0 0.0055829 -0 0.00558291)
(0.00558289 -0.00259608 -0 0.00558304 -0 0.00558297)
(0.00553079 -0.00257181 -0 0.00553079 -0 0.00553078)
(0.00553085 -0.0025718 -0 0.00553066 -0 0.00553075)
(0.00553053 -0.0025717 -0 0.00553053 -0 0.00553053)
(0.00553051 -0.00257173 -0 0.0055307 -0 0.00553061)
(0.00547696 -0.00254548 -0 0.00547694 -0 0.00547695)
(0.005477 -0.00254429 -0 0.0054768 -0 0.0054769)
(0.00547666 -0.00254422 -0 0.00547667 -0 0.00547667)
(0.00547667 -0.00254559 -0 0.00547688 -0 0.00547678)
(0.00542161 -0.00251535 -0 0.0054216 -0 0.00542161)
(0.00542162 -0.00251442 -0 0.00542144 -0 0.00542153)
(0.00542128 -0.00251453 -0 0.00542129 -0 0.00542129)
(0.00542135 -0.00251565 -0 0.00542153 -0 0.00542144)
(0.00536473 -0.00248621 -0 0.00536474 -0 0.00536474)
(0.00536472 -0.00248513 -0 0.00536456 -0 0.00536464)
(0.00536438 -0.00248531 -0 0.00536437 -0 0.00536438)
(0.0053645 -0.00248666 -0 0.00536465 -0 0.00536457)
(0.00530634 -0.00245626 -0 0.00530636 -0 0.00530635)
(0.0053063 -0.00245506 -0 0.00530617 -0 0.00530623)
(0.00530596 -0.00245528 -0 0.00530595 -0 0.00530595)
(0.00530613 -0.00245684 -0 0.00530626 -0 0.00530619)
(0.00524645 -0.00242552 -0 0.00524647 -0 0.00524646)
(0.00524638 -0.00242423 -0 0.00524627 -0 0.00524633)
(0.00524603 -0.00242448 -0 0.00524602 -0 0.00524603)
(0.00524626 -0.00242622 -0 0.00524636 -0 0.00524631)
(0.00518506 -0.00239401 -0 0.00518509 -0 0.00518507)
(0.00518497 -0.00239266 -0 0.00518489 -0 0.00518493)
(0.00518462 -0.00239291 -0 0.0051846 -0 0.00518461)
(0.00518489 -0.00239482 -0 0.00518497 -0 0.00518493)
(0.00512219 -0.00236176 -0 0.00512222 -0 0.0051222)
(0.00512208 -0.00236036 -0 0.00512202 -0 0.00512205)
(0.00512172 -0.00236059 -0 0.0051217 -0 0.00512171)
(0.00512203 -0.00236265 -0 0.0051221 -0 0.00512206)
(0.00505784 -0.00232877 -0 0.00505786 -0 0.00505785)
(0.00505772 -0.00232735 -0 0.00505767 -0 0.00505769)
(0.00505735 -0.00232755 -0 0.00505732 -0 0.00505733)
(0.00505769 -0.00232974 -0 0.00505774 -0 0.00505771)
(0.00499201 -0.00229506 -0 0.00499203 -0 0.00499202)
(0.00499188 -0.00229362 -0 0.00499184 -0 0.00499186)
(0.0049915 -0.00229379 -0 0.00499148 -0 0.00499149)
(0.00499187 -0.00229609 -0 0.00499191 -0 0.00499189)
(0.00492471 -0.00226062 -0 0.00492473 -0 0.00492472)
(0.00492457 -0.00225919 -0 0.00492454 -0 0.00492456)
(0.00492418 -0.00225932 -0 0.00492416 -0 0.00492417)
(0.00492458 -0.00226171 -0 0.0049246 -0 0.00492459)
(0.00485594 -0.00222548 -0 0.00485596 -0 0.00485595)
(0.00485579 -0.00222407 -0 0.00485578 -0 0.00485578)
(0.0048554 -0.00222416 -0 0.00485538 -0 0.00485539)
(0.00485582 -0.00222662 -0 0.00485583 -0 0.00485582)
(0.0047857 -0.00218964 -0 0.00478571 -0 0.0047857)
(0.00478555 -0.00218826 -0 0.00478554 -0 0.00478554)
(0.00478515 -0.00218831 -0 0.00478513 -0 0.00478514)
(0.00478558 -0.00219082 -0 0.00478559 -0 0.00478559)
(0.00471399 -0.00215312 -0 0.004714 -0 0.00471399)
(0.00471384 -0.00215176 -0 0.00471384 -0 0.00471384)
(0.00471344 -0.00215178 -0 0.00471342 -0 0.00471343)
(0.00471388 -0.00215433 -0 0.00471388 -0 0.00471388)
(0.00464081 -0.00211591 -0 0.00464082 -0 0.00464082)
(0.00464066 -0.00211459 -0 0.00464067 -0 0.00464067)
(0.00464026 -0.00211458 -0 0.00464025 -0 0.00464026)
(0.00464072 -0.00211716 -0 0.00464071 -0 0.00464071)
(0.00456618 -0.00207802 -0 0.00456618 -0 0.00456618)
(0.00456603 -0.00207674 -0 0.00456603 -0 0.00456603)
(0.00456563 -0.0020767 -0 0.00456562 -0 0.00456562)
(0.00456609 -0.0020793 -0 0.00456608 -0 0.00456608)
(0.00449007 -0.00203941 -0 0.00449008 -0 0.00449008)
(0.00448993 -0.00203817 -0 0.00448994 -0 0.00448993)
(0.00448953 -0.0020381 -0 0.00448953 -0 0.00448953)
(0.00449 -0.00204071 -0 0.00448998 -0 0.00448999)
(0.00441252 -0.00200011 -0 0.00441252 -0 0.00441252)
(0.00441237 -0.00199892 -0 0.00441239 -0 0.00441238)
(0.00441198 -0.00199884 -0 0.00441198 -0 0.00441198)
(0.00441245 -0.00200144 -0 0.00441243 -0 0.00441244)
(0.00433351 -0.00196016 -0 0.00433351 -0 0.00433351)
(0.00433337 -0.00195903 -0 0.00433339 -0 0.00433338)
(0.00433298 -0.00195893 -0 0.00433299 -0 0.00433298)
(0.00433345 -0.0019615 -0 0.00433343 -0 0.00433344)
(0.00425307 -0.00191953 -0 0.00425307 -0 0.00425307)
(0.00425293 -0.00191847 -0 0.00425295 -0 0.00425294)
(0.00425256 -0.00191835 -0 0.00425256 -0 0.00425256)
(0.00425302 -0.0019209 -0 0.004253 -0 0.00425301)
(0.00417122 -0.00187823 -0 0.00417121 -0 0.00417121)
(0.00417108 -0.00187725 -0 0.00417111 -0 0.0041711)
(0.00417072 -0.00187711 -0 0.00417073 -0 0.00417072)
(0.00417118 -0.00187963 -0 0.00417115 -0 0.00417117)
(0.00408798 -0.00183625 -0 0.00408796 -0 0.00408797)
(0.00408785 -0.00183535 -0 0.00408787 -0 0.00408786)
(0.00408749 -0.00183521 -0 0.00408751 -0 0.0040875)
(0.00408795 -0.00183768 -0 0.00408792 -0 0.00408793)
(0.00400338 -0.0017936 -0 0.00400337 -0 0.00400337)
(0.00400325 -0.00179274 -0 0.00400328 -0 0.00400327)
(0.00400292 -0.00179267 -0 0.00400293 -0 0.00400292)
(0.00400336 -0.00179506 -0 0.00400334 -0 0.00400335)
(0.00391747 -0.00175028 -0 0.00391745 -0 0.00391746)
(0.00391735 -0.00174953 -0 0.00391737 -0 0.00391736)
(0.00391703 -0.00174943 -0 0.00391704 -0 0.00391703)
(0.00391746 -0.00175179 -0 0.00391743 -0 0.00391744)
(0.00383028 -0.00170629 -0 0.00383026 -0 0.00383027)
(0.00383017 -0.0017057 -0 0.00383019 -0 0.00383018)
(0.00382986 -0.00170552 -0 0.00382988 -0 0.00382987)
(0.00383028 -0.00170784 -0 0.00383025 -0 0.00383027)
(0.00374188 -0.00166163 -0 0.00374186 -0 0.00374187)
(0.00374177 -0.00166111 -0 0.0037418 -0 0.00374178)
(0.00374148 -0.00166098 -0 0.0037415 -0 0.00374149)
(0.00374188 -0.00166324 -0 0.00374185 -0 0.00374187)
(0.00365232 -0.00161631 -0 0.00365229 -0 0.0036523)
(0.00365222 -0.00161589 -0 0.00365224 -0 0.00365223)
(0.00365193 -0.00161577 -0 0.00365196 -0 0.00365195)
(0.00365232 -0.00161797 -0 0.0036523 -0 0.00365231)
(0.00356165 -0.00157032 -0 0.00356163 -0 0.00356164)
(0.00356156 -0.00157 -0 0.00356158 -0 0.00356157)
(0.00356129 -0.0015699 -0 0.00356132 -0 0.0035613)
(0.00356166 -0.00157204 -0 0.00356164 -0 0.00356165)
(0.00346996 -0.00152367 -0 0.00346994 -0 0.00346995)
(0.00346987 -0.00152344 -0 0.00346989 -0 0.00346988)
(0.00346962 -0.00152336 -0 0.00346964 -0 0.00346963)
(0.00346997 -0.00152542 -0 0.00346995 -0 0.00346996)
(0.0033773 -0.00147633 -0 0.00337728 -0 0.00337729)
(0.00337722 -0.00147612 -0 0.00337723 -0 0.00337722)
(0.00337698 -0.00147615 -0 0.003377 -0 0.00337699)
(0.00337731 -0.00147813 -0 0.0033773 -0 0.00337731)
(0.00328375 -0.0014283 -0 0.00328374 -0 0.00328374)
(0.00328367 -0.0014282 -0 0.00328368 -0 0.00328367)
(0.00328346 -0.00142821 -0 0.00328347 -0 0.00328346)
(0.00328377 -0.00143015 -0 0.00328376 -0 0.00328376)
(0.00318938 -0.00137959 -0 0.00318938 -0 0.00318938)
(0.00318931 -0.00137956 -0 0.00318932 -0 0.00318931)
(0.00318911 -0.00137959 -0 0.00318912 -0 0.00318911)
(0.00318941 -0.00138148 -0 0.0031894 -0 0.0031894)
(0.00309429 -0.00133022 -0 0.00309428 -0 0.00309429)
(0.00309422 -0.00133034 -0 0.00309423 -0 0.00309422)
(0.00309403 -0.00133025 -0 0.00309404 -0 0.00309403)
(0.00309431 -0.00133213 -0 0.00309431 -0 0.00309431)
(0.00299855 -0.00128017 -0 0.00299855 -0 0.00299855)
(0.00299849 -0.0012803 -0 0.00299849 -0 0.00299849)
(0.00299831 -0.00128025 -0 0.00299831 -0 0.00299831)
(0.00299858 -0.00128211 -0 0.00299857 -0 0.00299857)
(0.00290226 -0.00122943 -0 0.00290226 -0 0.00290226)
(0.0029022 -0.00122962 -0 0.00290221 -0 0.00290221)
(0.00290203 -0.00122958 -0 0.00290203 -0 0.00290203)
(0.00290229 -0.00123139 -0 0.00290229 -0 0.00290229)
(0.00280553 -0.00117811 -0 0.00280553 -0 0.00280553)
(0.00280547 -0.00117815 -0 0.00280547 -0 0.00280547)
(0.00280531 -0.00117824 -0 0.00280531 -0 0.00280531)
(0.00280556 -0.00117998 -0 0.00280556 -0 0.00280556)
(0.00270847 -0.00112587 -0 0.00270847 -0 0.00270847)
(0.00270842 -0.00112623 -0 0.00270842 -0 0.00270842)
(0.00270827 -0.00112614 -0 0.00270827 -0 0.00270827)
(0.0027085 -0.00112788 -0 0.0027085 -0 0.0027085)
(0.00261122 -0.00107313 -0 0.00261122 -0 0.00261122)
(0.00261118 -0.00107344 -0 0.00261118 -0 0.00261118)
(0.00261103 -0.00107338 -0 0.00261103 -0 0.00261103)
(0.00261126 -0.00107512 -0 0.00261126 -0 0.00261126)
(0.00251395 -0.00101971 -0 0.00251395 -0 0.00251395)
(0.00251391 -0.00102003 -0 0.00251391 -0 0.00251391)
(0.00251377 -0.00101998 -0 0.00251377 -0 0.00251377)
(0.00251399 -0.00102167 -0 0.00251399 -0 0.00251399)
(0.00241685 -0.000965726 -0 0.00241685 -0 0.00241685)
(0.0024168 -0.00096584 -0 0.0024168 -0 0.0024168)
(0.00241668 -0.000965991 -0 0.00241668 -0 0.00241668)
(0.00241688 -0.000967553 -0 0.00241689 -0 0.00241689)
(0.00232014 -0.000910885 -0 0.00232015 -0 0.00232014)
(0.0023201 -0.000911335 -0 0.0023201 -0 0.0023201)
(0.00231998 -0.000911189 -0 0.00231997 -0 0.00231998)
(0.00232018 -0.000912835 -0 0.00232018 -0 0.00232018)
(0.0022241 -0.000855593 -0 0.00222411 -0 0.0022241)
(0.00222407 -0.000855957 -0 0.00222407 -0 0.00222407)
(0.00222395 -0.000855835 -0 0.00222394 -0 0.00222395)
(0.00222415 -0.000857483 -0 0.00222415 -0 0.00222415)
(0.00212907 -0.000799685 -0 0.00212908 -0 0.00212908)
(0.00212905 -0.000800043 -0 0.00212905 -0 0.00212905)
(0.00212893 -0.000799948 -0 0.00212892 -0 0.00212892)
(0.00212914 -0.000801475 -0 0.00212913 -0 0.00212913)
(0.00203546 -0.000743227 -0 0.00203547 -0 0.00203546)
(0.00203544 -0.000743557 -0 0.00203544 -0 0.00203544)
(0.00203533 -0.000743511 -0 0.00203531 -0 0.00203532)
(0.00203553 -0.000744866 -0 0.00203552 -0 0.00203552)
(0.00194375 -0.000686378 -0 0.00194377 -0 0.00194376)
(0.00194372 -0.000686404 -0 0.00194373 -0 0.00194372)
(0.00194363 -0.000686605 -0 0.00194361 -0 0.00194362)
(0.00194381 -0.000687695 -0 0.0019438 -0 0.00194381)
(0.00185451 -0.000628871 -0 0.00185454 -0 0.00185453)
(0.00185448 -0.00062908 -0 0.00185449 -0 0.00185448)
(0.00185441 -0.000628988 -0 0.00185438 -0 0.00185439)
(0.00185456 -0.000630075 -0 0.00185455 -0 0.00185456)
(0.00176842 -0.000570924 -0 0.00176844 -0 0.00176843)
(0.00176839 -0.000571086 -0 0.0017684 -0 0.0017684)
(0.00176832 -0.00057099 -0 0.0017683 -0 0.00176831)
(0.00176846 -0.000571997 -0 0.00176845 -0 0.00176845)
(0.00168626 -0.000512544 -0 0.00168627 -0 0.00168627)
(0.00168623 -0.00051271 -0 0.00168624 -0 0.00168623)
(0.00168616 -0.000512568 -0 0.00168614 -0 0.00168615)
(0.00168628 -0.000513505 -0 0.00168628 -0 0.00168628)
(0.00160893 -0.000453775 -0 0.00160894 -0 0.00160893)
(0.0016089 -0.00045395 -0 0.00160891 -0 0.00160891)
(0.00160883 -0.000453777 -0 0.00160882 -0 0.00160882)
(0.00160894 -0.000454638 -0 0.00160894 -0 0.00160894)
(0.00153744 -0.000394651 -0 0.00153745 -0 0.00153745)
(0.00153742 -0.000394837 -0 0.00153742 -0 0.00153742)
(0.00153735 -0.000394645 -0 0.00153734 -0 0.00153734)
(0.00153745 -0.000395428 -0 0.00153745 -0 0.00153745)
(0.00147292 -0.000335187 -0 0.00147292 -0 0.00147292)
(0.0014729 -0.000335379 -0 0.0014729 -0 0.0014729)
(0.00147282 -0.000335184 -0 0.00147282 -0 0.00147282)
(0.00147292 -0.000335883 -0 0.00147292 -0 0.00147292)
(0.00141651 -0.00027537 -0 0.00141651 -0 0.00141651)
(0.0014165 -0.000275564 -0 0.0014165 -0 0.0014165)
(0.00141642 -0.000275375 -0 0.00141641 -0 0.00141642)
(0.00141652 -0.000275988 -0 0.00141652 -0 0.00141652)
(0.0013694 -0.000215136 -0 0.00136941 -0 0.0013694)
(0.0013694 -0.000215337 -0 0.0013694 -0 0.0013694)
(0.00136932 -0.000215174 -0 0.00136931 -0 0.00136931)
(0.00136942 -0.000215684 -0 0.00136942 -0 0.00136942)
(0.00133273 -0.000154486 -0 0.00133273 -0 0.00133273)
(0.00133273 -0.000154571 -0 0.00133273 -0 0.00133273)
(0.00133264 -0.000154481 -0 0.00133263 -0 0.00133264)
(0.00133275 -0.000154864 -0 0.00133275 -0 0.00133275)
(0.00130749 -9.31724e-05 -0 0.0013075 -0 0.0013075)
(0.0013075 -9.31909e-05 -0 0.0013075 -0 0.0013075)
(0.00130739 -9.31498e-05 -0 0.00130738 -0 0.00130739)
(0.00130751 -9.33854e-05 -0 0.00130751 -0 0.00130751)
(0.00129454 -3.11682e-05 -0 0.00129454 -0 0.00129454)
(0.00129454 -3.11701e-05 -0 0.00129455 -0 0.00129454)
(0.00129442 -3.11548e-05 -0 0.00129442 -0 0.00129442)
(0.00129456 -3.12332e-05 -0 0.00129455 -0 0.00129455)
)
;

boundaryField
{
    inlet
    {
        type            cyclic;
    }
    outlet
    {
        type            cyclic;
    }
    fixedWalls-bottom
    {
        type            kqRWallFunction;
        value           nonuniform List<symmTensor> 4((1.79865e-07 -0 -0 1.79865e-07 -0 1.79865e-07) (1.79843e-07 -0 -0 1.79843e-07 -0 1.79843e-07) (1.79944e-07 -0 -0 1.79944e-07 -0 1.79944e-07) (1.79958e-07 -0 -0 1.79958e-07 -0 1.79958e-07));
    }
    fixedWalls-top
    {
        type            symmetry;
    }
    frontAndBack
    {
        type            empty;
    }
}


// ************************************************************************* //
