/*--------------------------------*- C++ -*----------------------------------*\
  =========                 |
  \\      /  F ield         | OpenFOAM: The Open Source CFD Toolbox
   \\    /   O peration     | Website:  https://openfoam.org
    \\  /    A nd           | Version:  10
     \\/     M anipulation  |
\*---------------------------------------------------------------------------*/
FoamFile
{
    format      ascii;
    class       volScalarField;
    location    "10000";
    object      k;
}
// * * * * * * * * * * * * * * * * * * * * * * * * * * * * * * * * * * * * * //

dimensions      [0 2 -2 0 0 0 0];

internalField   nonuniform List<scalar> 
400
(
2.22045e-16
2.22045e-16
2.22045e-16
2.22045e-16
2.64306e-15
2.64079e-15
2.63944e-15
2.64106e-15
1.87026e-14
1.86865e-14
1.8677e-14
1.86885e-14
6.79868e-14
6.79284e-14
6.78936e-14
6.79354e-14
1.75895e-13
1.75744e-13
1.75653e-13
1.75762e-13
3.7246e-13
3.72141e-13
3.7195e-13
3.72179e-13
6.92103e-13
6.91509e-13
6.91154e-13
6.91579e-13
1.17363e-12
1.17262e-12
1.17202e-12
1.17274e-12
1.86034e-12
1.85874e-12
1.85779e-12
1.85893e-12
2.80011e-12
2.79771e-12
2.79628e-12
2.79798e-12
4.04543e-12
4.04197e-12
4.03989e-12
4.04234e-12
5.65308e-12
5.64825e-12
5.64535e-12
5.64876e-12
7.68349e-12
7.67694e-12
7.67299e-12
7.6776e-12
1.01994e-11
1.01907e-11
1.01855e-11
1.01915e-11
1.32637e-11
1.32525e-11
1.32456e-11
1.32535e-11
1.69368e-11
1.69226e-11
1.69139e-11
1.69237e-11
2.1273e-11
2.12555e-11
2.12445e-11
2.12568e-11
2.63173e-11
2.62959e-11
2.62824e-11
2.62974e-11
3.21012e-11
3.20758e-11
3.20592e-11
3.20773e-11
3.86405e-11
3.86109e-11
3.85909e-11
3.86124e-11
4.59333e-11
4.58994e-11
4.58758e-11
4.5901e-11
5.39594e-11
5.39216e-11
5.38939e-11
5.39232e-11
6.26816e-11
6.26402e-11
6.2608e-11
6.26416e-11
7.20466e-11
7.20023e-11
7.19654e-11
7.20035e-11
8.19876e-11
8.19412e-11
8.18994e-11
8.19423e-11
9.24258e-11
9.23783e-11
9.23314e-11
9.23792e-11
1.0327e-10
1.03223e-10
1.03171e-10
1.03223e-10
1.14415e-10
1.14369e-10
1.14312e-10
1.1437e-10
1.25734e-10
1.25691e-10
1.25629e-10
1.25692e-10
1.37107e-10
1.37068e-10
1.37001e-10
1.37069e-10
1.48458e-10
1.48424e-10
1.48352e-10
1.48425e-10
1.59716e-10
1.59686e-10
1.59611e-10
1.59688e-10
1.70814e-10
1.70789e-10
1.7071e-10
1.70792e-10
1.81691e-10
1.8167e-10
1.81589e-10
1.81675e-10
1.92289e-10
1.92272e-10
1.92189e-10
1.92278e-10
2.02552e-10
2.0254e-10
2.02455e-10
2.02547e-10
2.12555e-10
2.12546e-10
2.12458e-10
2.12554e-10
2.22357e-10
2.22348e-10
2.22257e-10
2.22356e-10
2.31996e-10
2.31988e-10
2.31893e-10
2.31995e-10
2.41498e-10
2.41489e-10
2.4139e-10
2.41497e-10
2.50877e-10
2.50868e-10
2.50764e-10
2.50875e-10
2.60139e-10
2.60129e-10
2.60021e-10
2.60137e-10
2.69282e-10
2.69272e-10
2.69159e-10
2.6928e-10
2.78304e-10
2.78294e-10
2.78175e-10
2.78301e-10
2.87195e-10
2.87184e-10
2.87061e-10
2.87192e-10
2.95944e-10
2.95933e-10
2.95804e-10
2.95941e-10
3.04539e-10
3.04528e-10
3.04393e-10
3.04536e-10
3.12965e-10
3.12953e-10
3.12812e-10
3.12962e-10
3.21206e-10
3.21193e-10
3.21046e-10
3.21203e-10
3.29245e-10
3.2923e-10
3.29077e-10
3.29242e-10
3.37064e-10
3.37047e-10
3.36887e-10
3.3706e-10
3.44642e-10
3.44623e-10
3.44456e-10
3.44637e-10
3.5196e-10
3.51937e-10
3.51764e-10
3.51954e-10
3.58995e-10
3.58968e-10
3.58788e-10
3.58988e-10
3.65724e-10
3.65693e-10
3.65507e-10
3.65717e-10
3.72124e-10
3.72088e-10
3.71894e-10
3.72116e-10
3.78168e-10
3.78128e-10
3.77926e-10
3.78159e-10
3.83831e-10
3.83785e-10
3.83577e-10
3.83821e-10
3.89083e-10
3.89032e-10
3.88817e-10
3.89073e-10
3.93895e-10
3.93839e-10
3.93617e-10
3.93886e-10
3.98237e-10
3.98177e-10
3.97948e-10
3.98228e-10
4.02076e-10
4.02012e-10
4.01778e-10
4.02069e-10
4.05378e-10
4.05312e-10
4.05072e-10
4.05374e-10
4.0811e-10
4.08042e-10
4.07796e-10
4.08108e-10
4.10235e-10
4.10164e-10
4.09913e-10
4.10235e-10
4.11715e-10
4.11642e-10
4.11387e-10
4.11716e-10
4.12512e-10
4.12438e-10
4.12179e-10
4.12514e-10
4.12587e-10
4.12513e-10
4.12249e-10
4.12589e-10
4.11897e-10
4.11825e-10
4.11558e-10
4.11901e-10
4.10403e-10
4.10337e-10
4.10065e-10
4.10411e-10
4.08067e-10
4.08007e-10
4.07732e-10
4.08081e-10
4.04852e-10
4.04797e-10
4.0452e-10
4.04872e-10
4.0072e-10
4.00669e-10
4.0039e-10
4.00744e-10
3.95636e-10
3.95586e-10
3.95308e-10
3.95663e-10
3.89563e-10
3.89514e-10
3.89238e-10
3.89592e-10
3.82465e-10
3.82417e-10
3.82145e-10
3.82494e-10
3.74301e-10
3.74257e-10
3.73989e-10
3.74331e-10
3.65022e-10
3.64984e-10
3.64719e-10
3.65051e-10
3.54559e-10
3.54528e-10
3.54263e-10
3.54583e-10
3.42807e-10
3.42781e-10
3.42511e-10
3.42823e-10
3.29697e-10
3.29675e-10
3.29401e-10
3.29706e-10
3.15301e-10
3.15282e-10
3.15005e-10
3.15303e-10
2.99702e-10
2.99684e-10
2.99402e-10
2.99695e-10
2.83007e-10
2.82989e-10
2.82701e-10
2.82988e-10
2.65398e-10
2.6538e-10
2.65085e-10
2.65367e-10
2.47087e-10
2.47069e-10
2.46767e-10
2.47042e-10
2.28316e-10
2.28299e-10
2.2799e-10
2.28257e-10
2.09521e-10
2.09505e-10
2.092e-10
2.09448e-10
1.9109e-10
1.91078e-10
1.90781e-10
1.91006e-10
1.73356e-10
1.73349e-10
1.73063e-10
1.73262e-10
1.56609e-10
1.56604e-10
1.56332e-10
1.56503e-10
1.41094e-10
1.41092e-10
1.40835e-10
1.40979e-10
1.27018e-10
1.27017e-10
1.26776e-10
1.26896e-10
1.14537e-10
1.14538e-10
1.14313e-10
1.1441e-10
1.03761e-10
1.03762e-10
1.03552e-10
1.03632e-10
9.47516e-11
9.47543e-11
9.45583e-11
9.46243e-11
8.7538e-11
8.75416e-11
8.73579e-11
8.74132e-11
8.21248e-11
8.2129e-11
8.19552e-11
8.2003e-11
7.85086e-11
7.8513e-11
7.8346e-11
7.83894e-11
7.66869e-11
7.66916e-11
7.65282e-11
7.65694e-11
)
;

boundaryField
{
    inlet
    {
        type            cyclic;
    }
    outlet
    {
        type            cyclic;
    }
    fixedWalls-bottom
    {
        type            kqRWallFunction;
        value           uniform 2.22045e-16;
    }
    fixedWalls-top
    {
        type            symmetry;
    }
    frontAndBack
    {
        type            empty;
    }
}


// ************************************************************************* //
