/*--------------------------------*- C++ -*----------------------------------*\
  =========                 |
  \\      /  F ield         | OpenFOAM: The Open Source CFD Toolbox
   \\    /   O peration     | Website:  https://openfoam.org
    \\  /    A nd           | Version:  10
     \\/     M anipulation  |
\*---------------------------------------------------------------------------*/
FoamFile
{
    format      ascii;
    class       surfaceScalarField;
    location    "10000";
    object      phi;
}
// * * * * * * * * * * * * * * * * * * * * * * * * * * * * * * * * * * * * * //

dimensions      [0 3 -1 0 0 0 0];

internalField   nonuniform List<scalar> 
696
(
6.38553e-05
6.72634e-18
6.38553e-05
-2.24799e-18
6.38553e-05
1.73735e-18
2.2458e-18
0.000194579
2.01651e-18
0.000194579
-7.48542e-18
0.000194579
6.72056e-18
7.48577e-18
0.000330205
-5.97008e-18
0.000330205
-1.43471e-17
0.000330205
1.47199e-17
1.43188e-17
0.000470864
-1.68322e-17
0.000470864
-2.17858e-17
0.000470864
2.57919e-17
2.1819e-17
0.000616686
-3.08101e-17
0.000616686
-2.80819e-17
0.000616686
3.94876e-17
2.84815e-17
0.000767806
-4.70769e-17
0.000767806
-3.23667e-17
0.000767806
5.60574e-17
3.27393e-17
0.000924359
-6.66431e-17
0.000924359
-3.26808e-17
0.000924359
7.54476e-17
3.30906e-17
0.00108649
-8.86448e-17
0.00108649
-2.76825e-17
0.00108649
9.74538e-17
2.82995e-17
0.00125432
-1.1318e-16
0.00125432
-1.44035e-17
0.00125432
1.21797e-16
1.53132e-17
0.00142802
-1.39922e-16
0.00142802
7.34508e-18
0.00142802
1.49097e-16
-6.79099e-18
0.00160772
-1.68529e-16
0.00160772
4.08326e-17
0.00160772
1.77439e-16
-4.00324e-17
0.00179356
-1.98639e-16
0.00179356
8.63191e-17
0.00179356
2.08119e-16
-8.58985e-17
0.00198571
-2.3121e-16
0.00198571
1.48122e-16
0.00198571
2.40103e-16
-1.47114e-16
0.00218431
-2.62548e-16
0.00218431
2.27172e-16
0.00218431
2.7153e-16
-2.26092e-16
0.00238952
-2.93861e-16
0.00238952
3.2674e-16
0.00238952
3.03565e-16
-3.26362e-16
0.00260149
-3.24468e-16
0.00260149
4.4951e-16
0.00260149
3.34567e-16
-4.49555e-16
0.00282038
-3.55489e-16
0.00282038
5.98698e-16
0.00282038
3.64455e-16
-5.97658e-16
0.00304636
-3.84254e-16
0.00304636
7.75128e-16
0.00304636
3.93471e-16
-7.74613e-16
0.00327958
-4.12682e-16
0.00327958
9.81318e-16
0.00327958
4.20194e-16
-9.79431e-16
0.00352021
-4.36882e-16
0.00352021
1.21896e-15
0.00352021
4.44654e-16
-1.2168e-15
0.00376842
-4.59157e-16
0.00376842
1.48703e-15
0.00376842
4.665e-16
-1.48479e-15
0.00402438
-4.78172e-16
0.00402438
1.78665e-15
0.00402438
4.84196e-16
-1.78319e-15
0.00428825
-4.92504e-16
0.00428825
2.11123e-15
0.00428825
4.99907e-16
-2.10904e-15
0.00456021
-5.06314e-16
0.00456021
2.45011e-15
0.00456021
5.13849e-16
-2.44759e-15
0.00484042
-5.20382e-16
0.00484042
2.78329e-15
0.00484042
5.26922e-16
-2.78017e-15
0.00512908
-5.37233e-16
0.00512908
3.06448e-15
0.00512908
5.44959e-16
-3.06311e-15
0.00542634
-5.67033e-16
0.00542634
3.22376e-15
0.00542634
5.75332e-16
-3.22251e-15
0.00573239
-6.21334e-16
0.00573239
3.13034e-15
0.00573239
6.30644e-16
-3.12945e-15
0.00604741
-6.86523e-16
0.00604741
2.85621e-15
0.00604741
6.95644e-16
-2.85517e-15
0.00637156
-7.35625e-16
0.00637156
2.56179e-15
0.00637156
7.44703e-16
-2.56005e-15
0.00670504
-7.77584e-16
0.00670504
2.25153e-15
0.00670504
7.84503e-16
-2.24805e-15
0.00704802
-8.05433e-16
0.00704802
1.92996e-15
0.00704802
8.12236e-16
-1.92669e-15
0.00740068
-8.28803e-16
0.00740068
1.60305e-15
0.00740068
8.34182e-16
-1.59764e-15
0.00776319
-8.41195e-16
0.00776319
1.27197e-15
0.00776319
8.47957e-16
-1.26819e-15
0.00813574
-8.52486e-16
0.00813574
9.53453e-16
0.00813574
8.5785e-16
-9.47404e-16
0.00851851
-8.55472e-16
0.00851851
6.44164e-16
0.00851851
8.61159e-16
-6.37773e-16
0.00891167
-8.56881e-16
0.00891167
3.62859e-16
0.00891167
8.63674e-16
-3.58193e-16
0.0093154
-8.60682e-16
0.0093154
1.08823e-16
0.0093154
8.67093e-16
-1.03908e-16
0.00972987
-8.62224e-16
0.00972987
-1.13597e-16
0.00972987
8.68625e-16
1.18864e-16
0.0101553
-8.71136e-16
0.0101553
-3.05748e-16
0.0101553
8.79674e-16
3.10007e-16
0.0105917
-8.83083e-16
0.0105917
-4.58019e-16
0.0105917
8.91128e-16
4.61365e-16
0.0110395
-9.0305e-16
0.0110395
-5.79997e-16
0.0110395
9.13377e-16
5.80339e-16
0.0114986
-9.32517e-16
0.0114986
-6.58733e-16
0.0114986
9.42402e-16
6.60949e-16
0.0119693
-9.6931e-16
0.0119693
-7e-16
0.0119693
9.79995e-16
7.00587e-16
0.0124518
-1.01533e-15
0.0124518
-7.0048e-16
0.0124518
1.02542e-15
7.04327e-16
0.0129462
-1.06429e-15
0.0129462
-6.64508e-16
0.0129462
1.07407e-15
6.66424e-16
0.0134526
-1.12305e-15
0.0134526
-5.8432e-16
0.0134526
1.13466e-15
5.86345e-16
0.0139711
-1.18902e-15
0.0139711
-4.66845e-16
0.0139711
1.198e-15
4.70554e-16
0.014502
-1.25989e-15
0.014502
-3.03799e-16
0.014502
1.26401e-15
3.10032e-16
0.0150454
-1.3304e-15
0.0150454
-1.08014e-16
0.0150454
1.33876e-15
1.1188e-16
0.0156013
-1.40442e-15
0.0156013
1.23027e-16
0.0156013
1.41265e-15
-1.20555e-16
0.0161699
-1.47918e-15
0.0161699
3.80871e-16
0.0161699
1.48635e-15
-3.78152e-16
0.0167513
-1.55411e-15
0.0167513
6.73861e-16
0.0167513
1.56174e-15
-6.72167e-16
0.0173456
-1.63676e-15
0.0173456
9.86627e-16
0.0173456
1.64787e-15
-9.87539e-16
0.0179529
-1.71473e-15
0.0179529
1.32321e-15
0.0179529
1.72652e-15
-1.32765e-15
0.0185732
-1.79358e-15
0.0185732
1.66452e-15
0.0185732
1.80017e-15
-1.66302e-15
0.0192066
-1.8612e-15
0.0192066
1.99771e-15
0.0192066
1.87282e-15
-2.00353e-15
0.0198532
-1.92923e-15
0.0198532
2.32429e-15
0.0198532
1.94256e-15
-2.33107e-15
0.020513
-1.99036e-15
0.020513
2.63658e-15
0.020513
2.0006e-15
-2.64182e-15
0.0211859
-2.04503e-15
0.0211859
2.91626e-15
0.0211859
2.05989e-15
-2.92241e-15
0.0218721
-2.09544e-15
0.0218721
3.15517e-15
0.0218721
2.10844e-15
-3.16037e-15
0.0225715
-2.16082e-15
0.0225715
3.34995e-15
0.0225715
2.16938e-15
-3.3491e-15
0.0232841
-2.23486e-15
0.0232841
3.48254e-15
0.0232841
2.24127e-15
-3.48297e-15
0.0240098
-2.32857e-15
0.0240098
3.54426e-15
0.0240098
2.33711e-15
-3.54505e-15
0.0247485
-2.45265e-15
0.0247485
3.54529e-15
0.0247485
2.46081e-15
-3.54489e-15
0.0255001
-2.61833e-15
0.0255001
3.46561e-15
0.0255001
2.62456e-15
-3.46556e-15
0.0262645
-2.82605e-15
0.0262645
3.31002e-15
0.0262645
2.82967e-15
-3.30642e-15
0.0270416
-3.08554e-15
0.0270416
3.08352e-15
0.0270416
3.08456e-15
-3.0756e-15
0.0278311
-3.38909e-15
0.0278311
2.78293e-15
0.0278311
3.38528e-15
-2.76525e-15
0.0286329
-3.76826e-15
0.0286329
2.41725e-15
0.0286329
3.76175e-15
-2.39821e-15
0.0294467
-4.22427e-15
0.0294467
1.99935e-15
0.0294467
4.22675e-15
-1.98668e-15
0.0302723
-4.80494e-15
0.0302723
1.54469e-15
0.0302723
4.80167e-15
-1.52287e-15
0.0311092
-5.52723e-15
0.0311092
1.05681e-15
0.0311092
5.53065e-15
-1.04396e-15
0.0319573
-6.43806e-15
0.0319573
5.69737e-16
0.0319573
6.44156e-15
-5.5941e-16
0.0328159
-7.57356e-15
0.0328159
1.43677e-16
0.0328159
7.58286e-15
-1.36692e-16
0.0336848
-8.9737e-15
0.0336848
-1.80803e-16
0.0336848
8.97529e-15
1.83465e-16
0.0345635
-1.0654e-14
0.0345635
-3.20142e-16
0.0345635
1.06555e-14
3.20351e-16
0.0354513
-1.26439e-14
0.0354513
-1.93082e-16
0.0354513
1.26481e-14
1.91955e-16
0.0363478
-1.49434e-14
0.0363478
3.48843e-16
0.0363478
1.49491e-14
-3.47949e-16
0.0372522
-1.75261e-14
0.0372522
1.44063e-15
0.0372522
1.75331e-14
-1.44511e-15
0.0381639
-2.02968e-14
0.0381639
3.19089e-15
0.0381639
2.03085e-14
-3.19489e-15
0.0390821
-2.31897e-14
0.0390821
5.86774e-15
0.0390821
2.31919e-14
-5.8674e-15
0.0400059
-2.61142e-14
0.0400059
9.61617e-15
0.0400059
2.61098e-14
-9.61166e-15
0.0409345
-2.88724e-14
0.0409345
1.46969e-14
0.0409345
2.88667e-14
-1.46879e-14
0.0418669
-3.12149e-14
0.0418669
2.135e-14
0.0418669
3.12122e-14
-2.13533e-14
0.042802
-3.27593e-14
0.042802
2.98447e-14
0.042802
3.27432e-14
-2.98343e-14
0.0437387
-3.34402e-14
0.0437387
3.40653e-14
0.0437387
3.34399e-14
-3.4068e-14
0.0446757
-3.31806e-14
0.0446757
3.07549e-14
0.0446757
3.3161e-14
-3.07389e-14
0.0456118
-3.1739e-14
0.0456118
2.43538e-14
0.0456118
3.17316e-14
-2.43451e-14
0.0465456
-2.93393e-14
0.0465456
1.74116e-14
0.0465456
2.93312e-14
-1.74116e-14
0.0474754
-2.62314e-14
0.0474754
1.104e-14
0.0474754
2.62277e-14
-1.10354e-14
0.0483998
-2.27035e-14
0.0483998
5.75229e-15
0.0483998
2.26969e-14
-5.74934e-15
0.0493169
-1.90268e-14
0.0493169
1.75874e-15
0.0493169
1.90276e-14
-1.76257e-15
0.0502249
-1.5437e-14
0.0502249
-9.74758e-16
0.0502249
1.54343e-14
9.77043e-16
0.0511218
-1.20483e-14
0.0511218
-2.56559e-15
0.0511218
1.20509e-14
2.56419e-15
0.0520055
-9.02941e-15
0.0520055
-3.18837e-15
0.0520055
9.02555e-15
3.19265e-15
0.0528737
-6.36758e-15
0.0528737
-3.04479e-15
0.0528737
6.35371e-15
3.0541e-15
0.053724
-4.03388e-15
0.053724
-2.33616e-15
0.053724
4.02484e-15
2.34418e-15
0.054554
-1.94458e-15
0.054554
-1.2596e-15
0.054554
1.94633e-15
1.26085e-15
0.0553607
0.0553607
0.0553607
)
;

boundaryField
{
    inlet
    {
        type            cyclic;
        value           nonuniform List<scalar> 
100
(
-0.0553607
-0.054554
-0.053724
-0.0528737
-0.0520055
-0.0511218
-0.0502249
-0.0493169
-0.0483998
-0.0474754
-0.0465456
-0.0456118
-0.0446757
-0.0437387
-0.042802
-0.0418669
-0.0409345
-0.0400059
-0.0390821
-0.0381639
-0.0372522
-0.0363478
-0.0354513
-0.0345635
-0.0336848
-0.0328159
-0.0319573
-0.0311092
-0.0302723
-0.0294467
-0.0286329
-0.0278311
-0.0270416
-0.0262645
-0.0255001
-0.0247485
-0.0240098
-0.0232841
-0.0225715
-0.0218721
-0.0211859
-0.020513
-0.0198532
-0.0192066
-0.0185732
-0.0179529
-0.0173456
-0.0167513
-0.0161699
-0.0156013
-0.0150454
-0.014502
-0.0139711
-0.0134526
-0.0129462
-0.0124518
-0.0119693
-0.0114986
-0.0110395
-0.0105917
-0.0101553
-0.00972987
-0.0093154
-0.00891167
-0.00851851
-0.00813574
-0.00776319
-0.00740068
-0.00704802
-0.00670504
-0.00637156
-0.00604741
-0.00573239
-0.00542634
-0.00512908
-0.00484042
-0.00456021
-0.00428825
-0.00402438
-0.00376842
-0.00352021
-0.00327958
-0.00304636
-0.00282038
-0.00260149
-0.00238952
-0.00218431
-0.00198571
-0.00179356
-0.00160772
-0.00142802
-0.00125432
-0.00108649
-0.000924359
-0.000767806
-0.000616686
-0.000470864
-0.000330205
-0.000194579
-6.38553e-05
)
;
    }
    outlet
    {
        type            cyclic;
        value           nonuniform List<scalar> 
100
(
0.0553607
0.054554
0.053724
0.0528737
0.0520055
0.0511218
0.0502249
0.0493169
0.0483998
0.0474754
0.0465456
0.0456118
0.0446757
0.0437387
0.042802
0.0418669
0.0409345
0.0400059
0.0390821
0.0381639
0.0372522
0.0363478
0.0354513
0.0345635
0.0336848
0.0328159
0.0319573
0.0311092
0.0302723
0.0294467
0.0286329
0.0278311
0.0270416
0.0262645
0.0255001
0.0247485
0.0240098
0.0232841
0.0225715
0.0218721
0.0211859
0.020513
0.0198532
0.0192066
0.0185732
0.0179529
0.0173456
0.0167513
0.0161699
0.0156013
0.0150454
0.014502
0.0139711
0.0134526
0.0129462
0.0124518
0.0119693
0.0114986
0.0110395
0.0105917
0.0101553
0.00972987
0.0093154
0.00891167
0.00851851
0.00813574
0.00776319
0.00740068
0.00704802
0.00670504
0.00637156
0.00604741
0.00573239
0.00542634
0.00512908
0.00484042
0.00456021
0.00428825
0.00402438
0.00376842
0.00352021
0.00327958
0.00304636
0.00282038
0.00260149
0.00238952
0.00218431
0.00198571
0.00179356
0.00160772
0.00142802
0.00125432
0.00108649
0.000924359
0.000767806
0.000616686
0.000470864
0.000330205
0.000194579
6.38553e-05
)
;
    }
    fixedWalls-bottom
    {
        type            calculated;
        value           uniform 0;
    }
    fixedWalls-top
    {
        type            symmetry;
        value           uniform 0;
    }
    frontAndBack
    {
        type            empty;
        value           nonuniform List<scalar> 0();
    }
}


// ************************************************************************* //
