/*--------------------------------*- C++ -*----------------------------------*\
  =========                 |
  \\      /  F ield         | OpenFOAM: The Open Source CFD Toolbox
   \\    /   O peration     | Website:  https://openfoam.org
    \\  /    A nd           | Version:  10
     \\/     M anipulation  |
\*---------------------------------------------------------------------------*/
FoamFile
{
    format      ascii;
    class       volVectorField;
    location    "10000";
    object      U;
}
// * * * * * * * * * * * * * * * * * * * * * * * * * * * * * * * * * * * * * //

dimensions      [0 1 -1 0 0 0 0];

internalField   nonuniform List<vector> 
400
(
(0.00692012 4.18528e-18 0)
(0.00692012 -5.9179e-19 0)
(0.00692012 3.32358e-19 0)
(0.00692012 5.45687e-19 0)
(0.0207936 5.7488e-18 0)
(0.0207936 -4.47914e-18 0)
(0.0207936 3.55615e-18 0)
(0.0207936 4.50733e-18 0)
(0.0347967 -8.35671e-19 0)
(0.0347967 -1.06721e-17 0)
(0.0347967 1.00009e-17 0)
(0.0347967 1.06426e-17 0)
(0.0489292 -1.04511e-17 0)
(0.0489292 -1.81139e-17 0)
(0.0489292 1.95369e-17 0)
(0.0489292 1.81408e-17 0)
(0.063191 -2.30911e-17 0)
(0.063191 -2.53654e-17 0)
(0.063191 3.19847e-17 0)
(0.063191 2.55795e-17 0)
(0.077582 -3.82348e-17 0)
(0.077582 -3.10129e-17 0)
(0.077582 4.71391e-17 0)
(0.077582 3.1367e-17 0)
(0.092102 -5.62138e-17 0)
(0.092102 -3.36907e-17 0)
(0.092102 6.51329e-17 0)
(0.092102 3.40937e-17 0)
(0.106751 -7.70534e-17 0)
(0.106751 -3.17719e-17 0)
(0.106751 8.58687e-17 0)
(0.106751 3.22975e-17 0)
(0.121528 -1.00396e-16 0)
(0.121528 -2.30809e-17 0)
(0.121528 1.09136e-16 0)
(0.121528 2.38267e-17 0)
(0.136433 -1.26142e-16 0)
(0.136433 -5.90968e-18 0)
(0.136433 1.35037e-16 0)
(0.136433 6.64782e-18 0)
(0.151465 -1.53932e-16 0)
(0.151465 2.11638e-17 0)
(0.151465 1.6296e-16 0)
(0.151465 -2.04875e-17 0)
(0.166624 -1.83402e-16 0)
(0.166624 6.02026e-17 0)
(0.166624 1.92557e-16 0)
(0.166624 -5.95556e-17 0)
(0.18191 -2.14876e-16 0)
(0.18191 1.13311e-16 0)
(0.18191 2.24023e-16 0)
(0.18191 -1.1257e-16 0)
(0.197321 -2.46974e-16 0)
(0.197321 1.8312e-16 0)
(0.197321 2.55926e-16 0)
(0.197321 -1.82095e-16 0)
(0.212857 -2.78401e-16 0)
(0.212857 2.7193e-16 0)
(0.212857 2.87692e-16 0)
(0.212857 -2.71142e-16 0)
(0.228516 -3.09374e-16 0)
(0.228516 3.82513e-16 0)
(0.228516 3.19314e-16 0)
(0.228516 -3.82387e-16 0)
(0.244299 -3.40279e-16 0)
(0.244299 5.17896e-16 0)
(0.244299 3.49881e-16 0)
(0.244299 -5.17473e-16 0)
(0.260203 -3.70425e-16 0)
(0.260203 6.80356e-16 0)
(0.260203 3.7957e-16 0)
(0.260203 -6.79637e-16 0)
(0.276229 -3.99098e-16 0)
(0.276229 8.71409e-16 0)
(0.276229 4.07494e-16 0)
(0.276229 -8.70254e-16 0)
(0.292374 -4.25511e-16 0)
(0.292374 1.0933e-15 0)
(0.292374 4.33102e-16 0)
(0.292374 -1.09124e-15 0)
(0.308637 -4.48745e-16 0)
(0.308637 1.34658e-15 0)
(0.308637 4.56296e-16 0)
(0.308637 -1.34438e-15 0)
(0.325016 -4.6942e-16 0)
(0.325016 1.63134e-15 0)
(0.325016 4.76112e-16 0)
(0.325016 -1.62852e-15 0)
(0.341511 -4.86045e-16 0)
(0.341511 1.94584e-15 0)
(0.341511 4.92791e-16 0)
(0.341511 -1.94305e-15 0)
(0.35812 -4.99508e-16 0)
(0.35812 2.28308e-15 0)
(0.35812 5.06993e-16 0)
(0.35812 -2.28073e-15 0)
(0.37484 -5.12131e-16 0)
(0.37484 2.63111e-15 0)
(0.37484 5.1905e-16 0)
(0.37484 -2.62817e-15 0)
(0.39167 -5.25802e-16 0)
(0.39167 2.95721e-15 0)
(0.39167 5.32851e-16 0)
(0.39167 -2.9549e-15 0)
(0.408608 -5.49459e-16 0)
(0.408608 3.18301e-15 0)
(0.408608 5.5753e-16 0)
(0.408608 -3.18179e-15 0)
(0.425652 -5.96766e-16 0)
(0.425652 3.17807e-15 0)
(0.425652 6.05473e-16 0)
(0.425652 -3.17693e-15 0)
(0.442798 -6.50057e-16 0)
(0.442798 3.04593e-15 0)
(0.442798 6.59114e-16 0)
(0.442798 -3.04482e-15 0)
(0.460046 -7.11994e-16 0)
(0.460046 2.7271e-15 0)
(0.460046 7.21219e-16 0)
(0.460046 -2.72582e-15 0)
(0.477392 -7.59709e-16 0)
(0.477392 2.4081e-15 0)
(0.477392 7.67804e-16 0)
(0.477392 -2.40555e-15 0)
(0.494834 -7.94145e-16 0)
(0.494834 2.08985e-15 0)
(0.494834 8.0096e-16 0)
(0.494834 -2.08641e-15 0)
(0.512369 -8.1915e-16 0)
(0.512369 1.76581e-15 0)
(0.512369 8.2528e-16 0)
(0.512369 -1.76151e-15 0)
(0.529993 -8.36425e-16 0)
(0.529993 1.43536e-15 0)
(0.529993 8.42634e-16 0)
(0.529993 -1.43087e-15 0)
(0.547704 -8.47781e-16 0)
(0.547704 1.10868e-15 0)
(0.547704 8.53907e-16 0)
(0.547704 -1.1038e-15 0)
(0.565497 -8.54863e-16 0)
(0.565497 7.93505e-16 0)
(0.565497 8.60289e-16 0)
(0.565497 -7.87175e-16 0)
(0.583371 -8.56892e-16 0)
(0.583371 4.96634e-16 0)
(0.583371 8.62998e-16 0)
(0.583371 -4.90975e-16 0)
(0.60132 -8.5852e-16 0)
(0.60132 2.27611e-16 0)
(0.60132 8.65004e-16 0)
(0.60132 -2.22762e-16 0)
(0.619341 -8.6085e-16 0)
(0.619341 -1.10431e-17 0)
(0.619341 8.67359e-16 0)
(0.619341 1.60068e-17 0)
(0.63743 -8.65276e-16 0)
(0.63743 -2.18864e-16 0)
(0.63743 8.7283e-16 0)
(0.63743 2.2353e-16 0)
(0.655582 -8.75449e-16 0)
(0.655582 -3.91279e-16 0)
(0.655582 8.83672e-16 0)
(0.655582 3.95188e-16 0)
(0.673793 -8.91263e-16 0)
(0.673793 -5.28588e-16 0)
(0.673793 9.00411e-16 0)
(0.673793 5.30501e-16 0)
(0.692058 -9.15974e-16 0)
(0.692058 -6.28853e-16 0)
(0.692058 9.26132e-16 0)
(0.692058 6.30148e-16 0)
(0.710372 -9.49268e-16 0)
(0.710372 -6.88895e-16 0)
(0.710372 9.59702e-16 0)
(0.710372 6.9019e-16 0)
(0.72873 -9.90499e-16 0)
(0.72873 -7.10451e-16 0)
(0.72873 1.00089e-15 0)
(0.72873 7.12675e-16 0)
(0.747126 -1.03848e-15 0)
(0.747126 -6.92129e-16 0)
(0.747126 1.04825e-15 0)
(0.747126 6.95237e-16 0)
(0.765555 -1.09226e-15 0)
(0.765555 -6.34805e-16 0)
(0.765555 1.10274e-15 0)
(0.765555 6.36936e-16 0)
(0.784011 -1.15495e-15 0)
(0.784011 -5.35058e-16 0)
(0.784011 1.16549e-15 0)
(0.784011 5.37629e-16 0)
(0.802487 -1.22346e-15 0)
(0.802487 -3.94765e-16 0)
(0.802487 1.23027e-15 0)
(0.802487 3.99444e-16 0)
(0.820977 -1.29461e-15 0)
(0.820977 -2.14368e-16 0)
(0.820977 1.30049e-15 0)
(0.820977 2.19695e-16 0)
(0.839474 -1.36657e-15 0)
(0.839474 -3.70122e-19 0)
(0.839474 1.37493e-15 0)
(0.839474 3.45936e-18 0)
(0.857971 -1.4412e-15 0)
(0.857971 2.45103e-16 0)
(0.857971 1.44906e-15 0)
(0.857971 -2.42679e-16 0)
(0.87646 -1.51613e-15 0)
(0.87646 5.22061e-16 0)
(0.87646 1.52344e-15 0)
(0.87646 -5.19724e-16 0)
(0.894935 -1.59535e-15 0)
(0.894935 8.26564e-16 0)
(0.894935 1.60467e-15 0)
(0.894935 -8.26053e-16 0)
(0.913386 -1.67572e-15 0)
(0.913386 1.15294e-15 0)
(0.913386 1.68761e-15 0)
(0.913386 -1.15592e-15 0)
(0.931806 -1.75487e-15 0)
(0.931806 1.49386e-15 0)
(0.931806 1.76438e-15 0)
(0.931806 -1.49549e-15 0)
(0.950185 -1.82902e-15 0)
(0.950185 1.83344e-15 0)
(0.950185 1.83804e-15 0)
(0.950185 -1.83541e-15 0)
(0.968515 -1.89715e-15 0)
(0.968515 2.1656e-15 0)
(0.968515 1.90954e-15 0)
(0.968515 -2.17181e-15 0)
(0.986786 -1.96216e-15 0)
(0.986786 2.48806e-15 0)
(0.986786 1.97351e-15 0)
(0.986786 -2.49365e-15 0)
(1.00499 -2.01769e-15 0)
(1.00499 2.78646e-15 0)
(1.00499 2.03044e-15 0)
(1.00499 -2.79247e-15 0)
(1.02311 -2.06973e-15 0)
(1.02311 3.04731e-15 0)
(1.02311 2.08374e-15 0)
(1.02311 -3.05323e-15 0)
(1.04115 -2.12642e-15 0)
(1.04115 3.26752e-15 0)
(1.04115 2.13658e-15 0)
(1.04115 -3.26928e-15 0)
(1.05908 -2.19278e-15 0)
(1.05908 3.43137e-15 0)
(1.05908 2.20145e-15 0)
(1.05908 -3.43242e-15 0)
(1.0769 -2.27633e-15 0)
(1.0769 3.53151e-15 0)
(1.0769 2.28449e-15 0)
(1.0769 -3.53295e-15 0)
(1.0946 -2.3838e-15 0)
(1.0946 3.56466e-15 0)
(1.0946 2.39119e-15 0)
(1.0946 -3.56393e-15 0)
(1.11216 -2.52763e-15 0)
(1.11216 3.52547e-15 0)
(1.11216 2.53473e-15 0)
(1.11216 -3.52512e-15 0)
(1.12957 -2.7137e-15 0)
(1.12957 3.40739e-15 0)
(1.12957 2.71909e-15 0)
(1.12957 -3.40592e-15 0)
(1.14682 -2.94603e-15 0)
(1.14682 3.21583e-15 0)
(1.14682 2.94747e-15 0)
(1.14682 -3.21003e-15 0)
(1.16389 -3.22189e-15 0)
(1.16389 2.95045e-15 0)
(1.16389 3.21951e-15 0)
(1.16389 -2.93763e-15 0)
(1.18077 -3.55891e-15 0)
(1.18077 2.61502e-15 0)
(1.18077 3.55332e-15 0)
(1.18077 -2.59611e-15 0)
(1.19744 -3.97151e-15 0)
(1.19744 2.21865e-15 0)
(1.19744 3.96818e-15 0)
(1.19744 -2.20138e-15 0)
(1.2139 -4.48271e-15 0)
(1.2139 1.77506e-15 0)
(1.2139 4.48243e-15 0)
(1.2139 -1.75782e-15 0)
(1.23011 -5.12767e-15 0)
(1.23011 1.2992e-15 0)
(1.23011 5.1277e-15 0)
(1.23011 -1.28172e-15 0)
(1.24607 -5.9363e-15 0)
(1.24607 8.02387e-16 0)
(1.24607 5.93968e-15 0)
(1.24607 -7.90693e-16 0)
(1.26176 -6.95047e-15 0)
(1.26176 3.34691e-16 0)
(1.26176 6.95769e-15 0)
(1.26176 -3.26897e-16 0)
(1.27716 -8.21224e-15 0)
(1.27716 -5.7362e-17 0)
(1.27716 8.21727e-15 0)
(1.27716 6.25387e-17 0)
(1.29225 -9.74775e-15 0)
(1.29225 -3.11144e-16 0)
(1.29225 9.74928e-15 0)
(1.29225 3.12379e-16 0)
(1.30701 -1.1582e-14 0)
(1.30701 -3.40968e-16 0)
(1.30701 1.15851e-14 0)
(1.30701 3.40228e-16 0)
(1.32143 -1.3732e-14 0)
(1.32143 -3.45448e-17 0)
(1.32143 1.37365e-14 0)
(1.32143 3.47557e-17 0)
(1.33548 -1.61792e-14 0)
(1.33548 7.44885e-16 0)
(1.33548 1.61855e-14 0)
(1.33548 -7.46788e-16 0)
(1.34914 -1.88763e-14 0)
(1.34914 2.13294e-15 0)
(1.34914 1.88861e-14 0)
(1.34914 -2.13785e-15 0)
(1.36238 -2.17349e-14 0)
(1.36238 4.2866e-15 0)
(1.36238 2.17417e-14 0)
(1.36238 -4.28845e-15 0)
(1.3752 -2.46801e-14 0)
(1.3752 7.39692e-15 0)
(1.3752 2.46782e-14 0)
(1.3752 -7.39365e-15 0)
(1.38755 -2.7567e-14 0)
(1.38755 1.17819e-14 0)
(1.38755 2.75623e-14 0)
(1.38755 -1.17752e-14 0)
(1.39942 -3.01571e-14 0)
(1.39942 1.81672e-14 0)
(1.39942 3.01536e-14 0)
(1.39942 -1.81649e-14 0)
(1.41078 -3.21405e-14 0)
(1.41078 2.69648e-14 0)
(1.41078 3.21312e-14 0)
(1.41078 -2.69614e-14 0)
(1.42161 -3.34822e-14 0)
(1.42161 3.14e-14 0)
(1.42161 3.34733e-14 0)
(1.42161 -3.13955e-14 0)
(1.43188 -3.35788e-14 0)
(1.43188 3.33855e-14 0)
(1.43188 3.35706e-14 0)
(1.43188 -3.33806e-14 0)
(1.44155 -3.27172e-14 0)
(1.44155 2.84759e-14 0)
(1.44155 3.27033e-14 0)
(1.44155 -2.84631e-14 0)
(1.4506 -3.07265e-14 0)
(1.4506 2.11027e-14 0)
(1.4506 3.07173e-14 0)
(1.4506 -2.10968e-14 0)
(1.45901 -2.79021e-14 0)
(1.45901 1.40509e-14 0)
(1.45901 2.78966e-14 0)
(1.45901 -1.40491e-14 0)
(1.46673 -2.45177e-14 0)
(1.46673 8.10183e-15 0)
(1.46673 2.45127e-14 0)
(1.46673 -8.09832e-15 0)
(1.47374 -2.08547e-14 0)
(1.47374 3.44306e-15 0)
(1.47374 2.08515e-14 0)
(1.47374 -3.44329e-15 0)
(1.48001 -1.71747e-14 0)
(1.48001 9.96287e-17 0)
(1.48001 1.71726e-14 0)
(1.48001 -9.92193e-17 0)
(1.48549 -1.36555e-14 0)
(1.48549 -2.02669e-15 0)
(1.48549 1.36554e-14 0)
(1.48549 2.02725e-15 0)
(1.49015 -1.04388e-14 0)
(1.49015 -3.08827e-15 0)
(1.49015 1.04381e-14 0)
(1.49015 3.08978e-15 0)
(1.49397 -7.60154e-15 0)
(1.49397 -3.2779e-15 0)
(1.49397 7.59228e-15 0)
(1.49397 3.28513e-15 0)
(1.49688 -5.11869e-15 0)
(1.49688 -2.80427e-15 0)
(1.49688 5.10739e-15 0)
(1.49688 2.81254e-15 0)
(1.49887 -2.92685e-15 0)
(1.49887 -1.85835e-15 0)
(1.49887 2.92628e-15 0)
(1.49887 1.86237e-15 0)
(1.49989 -9.6439e-16 0)
(1.49989 -6.56479e-16 0)
(1.49989 9.62954e-16 0)
(1.49989 6.56553e-16 0)
)
;

boundaryField
{
    inlet
    {
        type            cyclic;
    }
    outlet
    {
        type            cyclic;
    }
    fixedWalls-bottom
    {
        type            noSlip;
    }
    fixedWalls-top
    {
        type            symmetry;
    }
    frontAndBack
    {
        type            empty;
    }
}


// ************************************************************************* //
