/*--------------------------------*- C++ -*----------------------------------*\
  =========                 |
  \\      /  F ield         | OpenFOAM: The Open Source CFD Toolbox
   \\    /   O peration     | Website:  https://openfoam.org
    \\  /    A nd           | Version:  10
     \\/     M anipulation  |
\*---------------------------------------------------------------------------*/
FoamFile
{
    format      ascii;
    class       volScalarField;
    location    "4468";
    object      nut;
}
// * * * * * * * * * * * * * * * * * * * * * * * * * * * * * * * * * * * * * //

dimensions      [0 2 -1 0 0 0 0];

internalField   nonuniform List<scalar> 
400
(
6.36828e-10
6.36637e-10
6.36569e-10
6.36613e-10
1.10843e-07
1.1081e-07
1.10798e-07
1.10805e-07
2.20189e-06
2.20121e-06
2.20098e-06
2.20113e-06
1.41034e-05
1.40987e-05
1.40972e-05
1.40982e-05
4.52725e-05
4.52563e-05
4.52522e-05
4.52557e-05
9.52387e-05
9.52054e-05
9.51998e-05
9.52056e-05
0.000155988
0.000155959
0.000155951
0.000155957
0.00022217
0.00022214
0.000222132
0.00022214
0.000294979
0.000294948
0.000294943
0.000294957
0.000373528
0.000373495
0.000373495
0.00037352
0.00045664
0.000456604
0.000456611
0.000456649
0.000543497
0.000543455
0.000543471
0.000543524
0.000633392
0.000633343
0.000633366
0.000633435
0.000725781
0.000725725
0.000725756
0.000725838
0.000820271
0.000820209
0.000820245
0.000820336
0.000916584
0.000916518
0.000916558
0.000916653
0.00101454
0.00101447
0.00101451
0.0010146
0.00111401
0.00111394
0.00111398
0.00111407
0.00121493
0.00121487
0.00121491
0.00121498
0.00131726
0.0013172
0.00131725
0.00131731
0.00142098
0.00142093
0.00142097
0.00142101
0.00152606
0.00152602
0.00152607
0.00152609
0.00163249
0.00163247
0.00163252
0.00163252
0.00174025
0.00174024
0.00174029
0.00174027
0.00184929
0.00184929
0.00184934
0.0018493
0.00195954
0.00195956
0.00195961
0.00195955
0.00207094
0.00207097
0.00207102
0.00207094
0.00218338
0.00218342
0.00218347
0.00218337
0.00229674
0.00229678
0.00229683
0.00229672
0.00241087
0.00241092
0.00241097
0.00241084
0.0025256
0.00252566
0.00252571
0.00252557
0.00264076
0.00264083
0.00264088
0.00264073
0.00275615
0.00275622
0.00275628
0.00275611
0.00287156
0.00287164
0.00287169
0.00287152
0.00298678
0.00298686
0.00298692
0.00298674
0.0031016
0.00310168
0.00310174
0.00310156
0.00321582
0.00321591
0.00321597
0.00321579
0.00332929
0.00332938
0.00332945
0.00332927
0.00344192
0.00344201
0.00344208
0.00344189
0.00355369
0.00355379
0.00355386
0.00355367
0.00366476
0.00366487
0.00366494
0.00366473
0.00377546
0.00377559
0.00377564
0.00377542
0.00388638
0.00388651
0.00388652
0.0038863
0.00399836
0.00399846
0.00399844
0.00399824
0.00411249
0.00411253
0.00411246
0.00411236
0.00422999
0.00422993
0.00422985
0.00422991
0.00435194
0.00435175
0.00435173
0.00435203
0.00447875
0.00447846
0.00447859
0.00447916
0.0046093
0.00460903
0.00460938
0.00461013
0.00473965
0.00473955
0.00474009
0.00474069
0.00486123
0.00486136
0.00486178
0.00486156
0.00495864
0.00495872
0.00495825
0.00495612
0.00503971
0.00503975
0.00503933
0.00503746
0.00511655
0.00511656
0.00511615
0.00511462
0.00518892
0.00518892
0.00518843
0.00518735
0.00525667
0.00525664
0.00525601
0.00525549
0.00532009
0.00532008
0.00531928
0.00531929
0.00537948
0.00537946
0.00537861
0.00537889
0.00543459
0.00543456
0.0054337
0.00543413
0.00548515
0.00548512
0.00548425
0.00548477
0.00553097
0.00553094
0.00553008
0.00553062
0.00557201
0.00557198
0.00557114
0.00557169
0.00560825
0.00560821
0.0056074
0.00560794
0.00563955
0.0056395
0.00563872
0.00563924
0.00566583
0.00566577
0.00566504
0.00566555
0.00568709
0.005687
0.00568635
0.00568684
0.00570335
0.00570324
0.0057027
0.00570318
0.00571467
0.00571454
0.00571417
0.00571464
0.00572112
0.00572105
0.00572085
0.00572133
0.00572291
0.00572288
0.00572283
0.00572334
0.00572015
0.00572018
0.00572023
0.00572078
0.00571301
0.00571305
0.00571311
0.00571375
0.00570141
0.00570142
0.00570162
0.00570236
0.00568552
0.00568565
0.00568573
0.00568667
0.00566538
0.00566563
0.00566568
0.00566675
0.00564107
0.00564141
0.00564147
0.00564274
0.00561279
0.00561311
0.00561326
0.00561473
0.00558063
0.00558079
0.00558116
0.00558285
0.00554469
0.00554518
0.00554511
0.0055473
0.00550493
0.00550584
0.0055056
0.00550822
0.00546219
0.00546309
0.00546299
0.00546578
0.00541653
0.00541715
0.00541731
0.00542035
0.00536848
0.0053682
0.00536919
0.00537218
0.00531765
0.00531755
0.00531834
0.0053218
0.00526483
0.0052648
0.00526601
0.00526948
0.00521049
0.00521129
0.00521176
0.00521598
0.00515638
0.00515586
0.00515761
0.00516153
0.0051014
0.00510115
0.00510266
0.00510716
0.00504659
0.00504755
0.00504817
0.00505342
0.00499454
0.00499381
0.00499606
0.00500076
0.00494364
0.00494327
0.00494519
0.00495041
0.00489509
0.00489625
0.00489707
0.00490291
0.00485195
0.00485101
0.00485394
0.00485869
0.00481205
0.00481125
0.00481391
0.00481905
0.00477682
0.00477661
0.00477821
0.00478447
0.00474648
0.00474821
0.0047477
0.00475535
0.00472405
0.00472403
0.00472475
0.00473154
0.00470657
0.00470703
0.00470806
0.00471393
0.00469553
0.00469526
0.00469757
0.00470305
0.00469053
0.00469255
0.00469313
0.00469893
)
;

boundaryField
{
    inlet
    {
        type            cyclic;
    }
    outlet
    {
        type            cyclic;
    }
    fixedWalls-bottom
    {
        type            nutkWallFunction;
        Cmu             0.09;
        kappa           0.41;
        E               9.8;
        value           uniform 0;
    }
    fixedWalls-top
    {
        type            symmetry;
    }
    frontAndBack
    {
        type            empty;
    }
}


// ************************************************************************* //
