/*--------------------------------*- C++ -*----------------------------------*\
  =========                 |
  \\      /  F ield         | OpenFOAM: The Open Source CFD Toolbox
   \\    /   O peration     | Website:  https://openfoam.org
    \\  /    A nd           | Version:  10
     \\/     M anipulation  |
\*---------------------------------------------------------------------------*/
FoamFile
{
    format      ascii;
    class       volSymmTensorField;
    location    "4468";
    object      R;
}
// * * * * * * * * * * * * * * * * * * * * * * * * * * * * * * * * * * * * * //

dimensions      [0 2 -2 0 0 0 0];

internalField   nonuniform List<symmTensor> 
400
(
(1.10094e-06 -1.20992e-08 -0 1.10094e-06 -0 1.10094e-06)
(1.10061e-06 -1.20953e-08 -0 1.10061e-06 -0 1.10061e-06)
(1.10049e-06 -1.20938e-08 -0 1.10049e-06 -0 1.10049e-06)
(1.10057e-06 -1.20947e-08 -0 1.10057e-06 -0 1.10057e-06)
(3.30039e-05 -2.08918e-06 -0 3.30039e-05 -0 3.30039e-05)
(3.2994e-05 -2.0885e-06 -0 3.2994e-05 -0 3.2994e-05)
(3.29905e-05 -2.08824e-06 -0 3.29905e-05 -0 3.29905e-05)
(3.29927e-05 -2.0884e-06 -0 3.29927e-05 -0 3.29927e-05)
(0.000230441 -4.0382e-05 -0 0.000230441 -0 0.000230441)
(0.000230371 -4.03687e-05 -0 0.000230371 -0 0.000230371)
(0.000230347 -4.03639e-05 -0 0.000230347 -0 0.000230347)
(0.000230363 -4.0367e-05 -0 0.000230363 -0 0.000230363)
(0.000773134 -0.000238963 -0 0.000773134 -0 0.000773134)
(0.000772908 -0.00023888 -0 0.000772907 -0 0.000772908)
(0.000772834 -0.000238855 -0 0.000772834 -0 0.000772834)
(0.000772886 -0.000238873 -0 0.000772887 -0 0.000772886)
(0.00162925 -0.000660399 -0 0.00162925 -0 0.00162925)
(0.00162883 -0.000660174 -0 0.00162883 -0 0.00162883)
(0.00162871 -0.000660122 -0 0.00162871 -0 0.00162871)
(0.00162881 -0.000660176 -0 0.00162881 -0 0.00162881)
(0.002523 -0.00113978 -0 0.002523 -0 0.002523)
(0.00252247 -0.00113942 -0 0.00252247 -0 0.00252247)
(0.00252235 -0.00113938 -0 0.00252235 -0 0.00252235)
(0.00252249 -0.00113945 -0 0.00252249 -0 0.00252249)
(0.00327051 -0.00152079 -0 0.00327051 -0 0.00327051)
(0.00326998 -0.00152054 -0 0.00326997 -0 0.00326998)
(0.00326988 -0.0015205 -0 0.00326988 -0 0.00326988)
(0.00327005 -0.00152057 -0 0.00327005 -0 0.00327005)
(0.00385015 -0.00179032 -0 0.00385015 -0 0.00385015)
(0.00384964 -0.00179009 -0 0.00384964 -0 0.00384964)
(0.00384959 -0.00179006 -0 0.00384959 -0 0.00384959)
(0.00384979 -0.00179016 -0 0.00384979 -0 0.00384979)
(0.00429224 -0.00199593 -0 0.00429223 -0 0.00429224)
(0.00429177 -0.00199572 -0 0.00429177 -0 0.00429177)
(0.00429177 -0.00199572 -0 0.00429178 -0 0.00429178)
(0.00429202 -0.00199583 -0 0.00429202 -0 0.00429202)
(0.00462708 -0.00215183 -0 0.00462707 -0 0.00462708)
(0.00462667 -0.00215163 -0 0.00462666 -0 0.00462666)
(0.00462672 -0.00215166 -0 0.00462672 -0 0.00462672)
(0.00462701 -0.00215179 -0 0.00462701 -0 0.00462701)
(0.00488091 -0.00226968 -0 0.0048809 -0 0.0048809)
(0.00488053 -0.00226951 -0 0.00488053 -0 0.00488053)
(0.00488063 -0.00226956 -0 0.00488064 -0 0.00488064)
(0.00488096 -0.00226971 -0 0.00488096 -0 0.00488096)
(0.00507414 -0.00235949 -0 0.00507413 -0 0.00507414)
(0.00507379 -0.00235933 -0 0.00507379 -0 0.00507379)
(0.00507394 -0.00235941 -0 0.00507395 -0 0.00507395)
(0.0050743 -0.00235957 -0 0.0050743 -0 0.0050743)
(0.00522187 -0.00242817 -0 0.00522186 -0 0.00522187)
(0.00522155 -0.00242802 -0 0.00522154 -0 0.00522154)
(0.00522174 -0.00242812 -0 0.00522174 -0 0.00522174)
(0.00522211 -0.00242829 -0 0.00522211 -0 0.00522211)
(0.00533509 -0.00248082 -0 0.00533508 -0 0.00533509)
(0.00533479 -0.00248068 -0 0.00533479 -0 0.00533479)
(0.00533501 -0.00248078 -0 0.00533502 -0 0.00533501)
(0.00533538 -0.00248096 -0 0.00533538 -0 0.00533538)
(0.0054218 -0.00252114 -0 0.00542179 -0 0.0054218)
(0.00542152 -0.00252101 -0 0.00542152 -0 0.00542152)
(0.00542176 -0.00252112 -0 0.00542176 -0 0.00542176)
(0.00542212 -0.00252129 -0 0.00542212 -0 0.00542212)
(0.00548784 -0.00255185 -0 0.00548784 -0 0.00548784)
(0.00548758 -0.00255173 -0 0.00548758 -0 0.00548758)
(0.00548783 -0.00255184 -0 0.00548784 -0 0.00548783)
(0.00548818 -0.002552 -0 0.00548817 -0 0.00548818)
(0.00553754 -0.00257496 -0 0.00553754 -0 0.00553754)
(0.00553729 -0.00257484 -0 0.0055373 -0 0.0055373)
(0.00553755 -0.00257496 -0 0.00553755 -0 0.00553755)
(0.00553786 -0.00257511 -0 0.00553786 -0 0.00553786)
(0.00557411 -0.00259196 -0 0.00557411 -0 0.00557411)
(0.00557388 -0.00259186 -0 0.00557389 -0 0.00557388)
(0.00557413 -0.00259197 -0 0.00557413 -0 0.00557413)
(0.00557441 -0.0025921 -0 0.0055744 -0 0.00557441)
(0.00559998 -0.00260399 -0 0.00559999 -0 0.00559998)
(0.00559977 -0.0026039 -0 0.00559978 -0 0.00559978)
(0.00560001 -0.002604 -0 0.00560001 -0 0.00560001)
(0.00560025 -0.00260411 -0 0.00560024 -0 0.00560024)
(0.00561701 -0.00261191 -0 0.00561701 -0 0.00561701)
(0.00561682 -0.00261182 -0 0.00561683 -0 0.00561683)
(0.00561704 -0.00261192 -0 0.00561704 -0 0.00561704)
(0.00561724 -0.00261201 -0 0.00561723 -0 0.00561723)
(0.00562663 -0.00261638 -0 0.00562663 -0 0.00562663)
(0.00562646 -0.00261631 -0 0.00562647 -0 0.00562647)
(0.00562667 -0.0026164 -0 0.00562666 -0 0.00562666)
(0.00562681 -0.00261646 -0 0.0056268 -0 0.0056268)
(0.00562995 -0.00261793 -0 0.00562995 -0 0.00562995)
(0.00562981 -0.00261786 -0 0.00562982 -0 0.00562981)
(0.00562999 -0.00261795 -0 0.00562999 -0 0.00562999)
(0.00563009 -0.00261799 -0 0.00563008 -0 0.00563008)
(0.00562785 -0.00261695 -0 0.00562786 -0 0.00562786)
(0.00562774 -0.0026169 -0 0.00562775 -0 0.00562775)
(0.00562791 -0.00261698 -0 0.0056279 -0 0.0056279)
(0.00562796 -0.002617 -0 0.00562794 -0 0.00562795)
(0.00562104 -0.00261379 -0 0.00562105 -0 0.00562104)
(0.00562096 -0.00261375 -0 0.00562097 -0 0.00562096)
(0.0056211 -0.00261381 -0 0.0056211 -0 0.0056211)
(0.00562111 -0.00261381 -0 0.0056211 -0 0.0056211)
(0.00561008 -0.00260869 -0 0.00561008 -0 0.00561008)
(0.00561002 -0.00260866 -0 0.00561004 -0 0.00561003)
(0.00561015 -0.00260872 -0 0.00561015 -0 0.00561015)
(0.00561011 -0.0026087 -0 0.0056101 -0 0.00561011)
(0.00559542 -0.00260187 -0 0.00559542 -0 0.00559542)
(0.00559539 -0.00260186 -0 0.0055954 -0 0.0055954)
(0.0055955 -0.00260191 -0 0.0055955 -0 0.0055955)
(0.00559542 -0.00260187 -0 0.00559541 -0 0.00559542)
(0.00557743 -0.00259351 -0 0.00557743 -0 0.00557743)
(0.00557742 -0.00259351 -0 0.00557744 -0 0.00557743)
(0.00557752 -0.00259355 -0 0.00557752 -0 0.00557752)
(0.00557741 -0.00259349 -0 0.0055774 -0 0.0055774)
(0.00555642 -0.00258374 -0 0.00555642 -0 0.00555642)
(0.00555644 -0.00258375 -0 0.00555645 -0 0.00555644)
(0.00555652 -0.00258378 -0 0.00555652 -0 0.00555652)
(0.00555638 -0.00258371 -0 0.00555637 -0 0.00555637)
(0.00553264 -0.00257268 -0 0.00553265 -0 0.00553265)
(0.00553268 -0.0025727 -0 0.00553269 -0 0.00553269)
(0.00553275 -0.00257273 -0 0.00553275 -0 0.00553275)
(0.00553258 -0.00257265 -0 0.00553257 -0 0.00553258)
(0.00550631 -0.00256043 -0 0.00550631 -0 0.00550631)
(0.00550637 -0.00256046 -0 0.00550638 -0 0.00550637)
(0.00550643 -0.00256049 -0 0.00550643 -0 0.00550643)
(0.00550623 -0.0025604 -0 0.00550622 -0 0.00550623)
(0.0054776 -0.00254708 -0 0.0054776 -0 0.0054776)
(0.00547767 -0.00254712 -0 0.00547768 -0 0.00547768)
(0.00547773 -0.00254715 -0 0.00547773 -0 0.00547773)
(0.00547751 -0.00254704 -0 0.0054775 -0 0.00547751)
(0.00544667 -0.0025327 -0 0.00544667 -0 0.00544667)
(0.00544675 -0.00253274 -0 0.00544676 -0 0.00544676)
(0.00544681 -0.00253277 -0 0.00544681 -0 0.00544681)
(0.00544657 -0.00253265 -0 0.00544656 -0 0.00544657)
(0.00541364 -0.00251734 -0 0.00541364 -0 0.00541364)
(0.00541373 -0.00251739 -0 0.00541374 -0 0.00541374)
(0.00541379 -0.00251741 -0 0.00541379 -0 0.00541379)
(0.00541354 -0.00251729 -0 0.00541353 -0 0.00541353)
(0.00537863 -0.00250106 -0 0.00537862 -0 0.00537862)
(0.00537873 -0.00250111 -0 0.00537874 -0 0.00537874)
(0.00537879 -0.00250114 -0 0.00537879 -0 0.00537879)
(0.00537853 -0.00250101 -0 0.00537852 -0 0.00537852)
(0.00534173 -0.0024839 -0 0.00534173 -0 0.00534173)
(0.00534184 -0.00248396 -0 0.00534185 -0 0.00534185)
(0.0053419 -0.00248398 -0 0.0053419 -0 0.0053419)
(0.00534163 -0.00248386 -0 0.00534163 -0 0.00534163)
(0.00530304 -0.00246591 -0 0.00530304 -0 0.00530304)
(0.00530316 -0.00246597 -0 0.00530316 -0 0.00530316)
(0.00530321 -0.00246599 -0 0.00530321 -0 0.00530321)
(0.00530294 -0.00246587 -0 0.00530294 -0 0.00530294)
(0.00526262 -0.00244712 -0 0.00526262 -0 0.00526262)
(0.00526274 -0.00244718 -0 0.00526275 -0 0.00526275)
(0.0052628 -0.0024472 -0 0.0052628 -0 0.0052628)
(0.00526253 -0.00244708 -0 0.00526253 -0 0.00526253)
(0.00522055 -0.00242755 -0 0.00522055 -0 0.00522055)
(0.00522067 -0.00242761 -0 0.00522068 -0 0.00522068)
(0.00522073 -0.00242764 -0 0.00522073 -0 0.00522073)
(0.00522046 -0.00242751 -0 0.00522046 -0 0.00522046)
(0.00517688 -0.00240725 -0 0.00517688 -0 0.00517688)
(0.00517701 -0.00240731 -0 0.00517701 -0 0.00517701)
(0.00517706 -0.00240733 -0 0.00517706 -0 0.00517706)
(0.0051768 -0.00240721 -0 0.0051768 -0 0.0051768)
(0.00513168 -0.00238623 -0 0.00513168 -0 0.00513168)
(0.0051318 -0.00238629 -0 0.00513181 -0 0.0051318)
(0.00513186 -0.00238631 -0 0.00513186 -0 0.00513186)
(0.0051316 -0.0023862 -0 0.0051316 -0 0.0051316)
(0.00508499 -0.00236452 -0 0.005085 -0 0.00508499)
(0.00508512 -0.00236458 -0 0.00508512 -0 0.00508512)
(0.00508518 -0.00236461 -0 0.00508517 -0 0.00508518)
(0.00508493 -0.00236449 -0 0.00508493 -0 0.00508493)
(0.0050369 -0.00234216 -0 0.0050369 -0 0.0050369)
(0.00503702 -0.00234221 -0 0.00503702 -0 0.00503702)
(0.00503708 -0.00234224 -0 0.00503707 -0 0.00503707)
(0.00503684 -0.00234213 -0 0.00503684 -0 0.00503684)
(0.00498746 -0.00231917 -0 0.00498746 -0 0.00498746)
(0.00498757 -0.00231922 -0 0.00498757 -0 0.00498757)
(0.00498763 -0.00231925 -0 0.00498763 -0 0.00498763)
(0.0049874 -0.00231914 -0 0.0049874 -0 0.0049874)
(0.00493675 -0.00229559 -0 0.00493675 -0 0.00493675)
(0.00493687 -0.00229564 -0 0.00493687 -0 0.00493687)
(0.00493692 -0.00229567 -0 0.00493692 -0 0.00493692)
(0.0049367 -0.00229557 -0 0.0049367 -0 0.0049367)
(0.0048849 -0.00227148 -0 0.0048849 -0 0.0048849)
(0.00488501 -0.00227153 -0 0.00488501 -0 0.00488501)
(0.00488505 -0.00227155 -0 0.00488506 -0 0.00488506)
(0.00488485 -0.00227145 -0 0.00488485 -0 0.00488485)
(0.00483202 -0.00224689 -0 0.00483202 -0 0.00483202)
(0.00483212 -0.00224694 -0 0.00483213 -0 0.00483212)
(0.00483216 -0.00224696 -0 0.00483217 -0 0.00483217)
(0.00483197 -0.00224687 -0 0.00483197 -0 0.00483197)
(0.00477827 -0.0022219 -0 0.00477827 -0 0.00477827)
(0.00477836 -0.00222194 -0 0.00477837 -0 0.00477837)
(0.00477841 -0.00222196 -0 0.0047784 -0 0.0047784)
(0.00477823 -0.00222187 -0 0.00477822 -0 0.00477822)
(0.00472382 -0.00219658 -0 0.00472384 -0 0.00472383)
(0.0047239 -0.00219662 -0 0.00472392 -0 0.00472391)
(0.00472395 -0.00219664 -0 0.00472394 -0 0.00472395)
(0.0047238 -0.00219656 -0 0.00472378 -0 0.00472379)
(0.00466886 -0.00217103 -0 0.00466889 -0 0.00466887)
(0.00466893 -0.00217106 -0 0.00466896 -0 0.00466894)
(0.00466899 -0.00217107 -0 0.00466896 -0 0.00466898)
(0.00466885 -0.00217101 -0 0.00466883 -0 0.00466884)
(0.00461353 -0.0021453 -0 0.00461358 -0 0.00461356)
(0.0046136 -0.00214533 -0 0.00461362 -0 0.00461361)
(0.00461368 -0.00214535 -0 0.00461362 -0 0.00461365)
(0.00461355 -0.0021453 -0 0.00461353 -0 0.00461354)
(0.00455791 -0.00211944 -0 0.00455798 -0 0.00455795)
(0.00455798 -0.00211947 -0 0.004558 -0 0.00455799)
(0.00455807 -0.00211948 -0 0.004558 -0 0.00455803)
(0.00455795 -0.00211944 -0 0.00455794 -0 0.00455794)
(0.00450192 -0.00209022 -0 0.00450198 -0 0.00450195)
(0.00450199 -0.00209015 -0 0.004502 -0 0.00450199)
(0.00450206 -0.00208994 -0 0.004502 -0 0.00450203)
(0.00450195 -0.00208954 -0 0.00450195 -0 0.00450195)
(0.00444541 -0.00205995 -0 0.00444545 -0 0.00444543)
(0.00444546 -0.00205985 -0 0.00444547 -0 0.00444547)
(0.00444552 -0.00205971 -0 0.00444547 -0 0.0044455)
(0.00444542 -0.00205954 -0 0.00444542 -0 0.00444542)
(0.00438831 -0.0020304 -0 0.00438833 -0 0.00438832)
(0.00438835 -0.00203029 -0 0.00438835 -0 0.00438835)
(0.00438839 -0.00203012 -0 0.00438837 -0 0.00438838)
(0.0043883 -0.00202998 -0 0.0043883 -0 0.0043883)
(0.00433061 -0.00200028 -0 0.00433062 -0 0.00433062)
(0.00433065 -0.00200018 -0 0.00433065 -0 0.00433065)
(0.00433067 -0.00199999 -0 0.00433067 -0 0.00433067)
(0.00433059 -0.00199988 -0 0.0043306 -0 0.00433059)
(0.00427231 -0.00196956 -0 0.00427231 -0 0.00427231)
(0.00427235 -0.00196946 -0 0.00427234 -0 0.00427235)
(0.00427235 -0.00196925 -0 0.00427236 -0 0.00427236)
(0.00427229 -0.0019692 -0 0.00427229 -0 0.00427229)
(0.00421341 -0.00193829 -0 0.0042134 -0 0.0042134)
(0.00421344 -0.00193822 -0 0.00421343 -0 0.00421344)
(0.00421344 -0.00193798 -0 0.00421345 -0 0.00421344)
(0.00421338 -0.00193799 -0 0.00421339 -0 0.00421338)
(0.0041539 -0.00190653 -0 0.00415388 -0 0.00415389)
(0.00415393 -0.00190647 -0 0.00415392 -0 0.00415392)
(0.00415392 -0.00190623 -0 0.00415393 -0 0.00415392)
(0.00415387 -0.00190627 -0 0.00415388 -0 0.00415387)
(0.00409378 -0.00187422 -0 0.00409377 -0 0.00409378)
(0.00409381 -0.00187417 -0 0.0040938 -0 0.00409381)
(0.0040938 -0.00187394 -0 0.00409381 -0 0.0040938)
(0.00409376 -0.00187401 -0 0.00409376 -0 0.00409376)
(0.00403306 -0.00184136 -0 0.00403306 -0 0.00403306)
(0.00403309 -0.00184132 -0 0.00403309 -0 0.00403309)
(0.00403307 -0.00184109 -0 0.00403308 -0 0.00403308)
(0.00403304 -0.00184118 -0 0.00403305 -0 0.00403305)
(0.00397175 -0.00180793 -0 0.00397174 -0 0.00397174)
(0.00397178 -0.0018079 -0 0.00397177 -0 0.00397177)
(0.00397175 -0.00180767 -0 0.00397176 -0 0.00397176)
(0.00397173 -0.00180778 -0 0.00397174 -0 0.00397173)
(0.00390983 -0.00177395 -0 0.00390983 -0 0.00390983)
(0.00390986 -0.00177392 -0 0.00390985 -0 0.00390986)
(0.00390984 -0.0017737 -0 0.00390984 -0 0.00390984)
(0.00390982 -0.00177383 -0 0.00390982 -0 0.00390982)
(0.00384733 -0.00173942 -0 0.00384732 -0 0.00384732)
(0.00384735 -0.00173939 -0 0.00384734 -0 0.00384735)
(0.00384732 -0.00173918 -0 0.00384733 -0 0.00384733)
(0.00384731 -0.00173932 -0 0.00384732 -0 0.00384731)
(0.00378423 -0.00170432 -0 0.00378422 -0 0.00378422)
(0.00378425 -0.00170429 -0 0.00378424 -0 0.00378425)
(0.00378422 -0.0017041 -0 0.00378423 -0 0.00378422)
(0.00378422 -0.00170424 -0 0.00378422 -0 0.00378422)
(0.00372055 -0.00166865 -0 0.00372054 -0 0.00372054)
(0.00372056 -0.00166862 -0 0.00372056 -0 0.00372056)
(0.00372053 -0.00166844 -0 0.00372055 -0 0.00372054)
(0.00372053 -0.0016686 -0 0.00372054 -0 0.00372054)
(0.00365629 -0.00163241 -0 0.00365628 -0 0.00365629)
(0.00365631 -0.00163238 -0 0.00365631 -0 0.00365631)
(0.00365627 -0.00163222 -0 0.00365629 -0 0.00365628)
(0.00365628 -0.00163237 -0 0.00365628 -0 0.00365628)
(0.00359148 -0.00159558 -0 0.00359146 -0 0.00359147)
(0.00359149 -0.00159555 -0 0.00359149 -0 0.00359149)
(0.00359145 -0.00159542 -0 0.00359147 -0 0.00359146)
(0.00359146 -0.00159557 -0 0.00359146 -0 0.00359146)
(0.00352611 -0.00155818 -0 0.0035261 -0 0.0035261)
(0.00352612 -0.00155815 -0 0.00352612 -0 0.00352612)
(0.00352609 -0.00155804 -0 0.00352611 -0 0.0035261)
(0.0035261 -0.0015582 -0 0.0035261 -0 0.0035261)
(0.00346023 -0.00152019 -0 0.00346021 -0 0.00346022)
(0.00346023 -0.00152017 -0 0.00346023 -0 0.00346023)
(0.0034602 -0.00152009 -0 0.00346022 -0 0.00346021)
(0.00346021 -0.00152024 -0 0.00346021 -0 0.00346021)
(0.00339384 -0.00148161 -0 0.00339382 -0 0.00339383)
(0.00339384 -0.00148161 -0 0.00339384 -0 0.00339384)
(0.00339381 -0.00148155 -0 0.00339383 -0 0.00339382)
(0.00339382 -0.00148171 -0 0.00339382 -0 0.00339382)
(0.00332698 -0.00144245 -0 0.00332697 -0 0.00332698)
(0.00332699 -0.00144246 -0 0.00332698 -0 0.00332698)
(0.00332696 -0.00144242 -0 0.00332698 -0 0.00332697)
(0.00332697 -0.00144258 -0 0.00332697 -0 0.00332697)
(0.0032597 -0.0014027 -0 0.00325969 -0 0.00325969)
(0.0032597 -0.00140273 -0 0.0032597 -0 0.0032597)
(0.00325968 -0.00140268 -0 0.0032597 -0 0.00325969)
(0.00325969 -0.00140287 -0 0.0032597 -0 0.00325969)
(0.00319204 -0.00136235 -0 0.00319202 -0 0.00319203)
(0.00319204 -0.00136237 -0 0.00319203 -0 0.00319203)
(0.00319202 -0.00136236 -0 0.00319203 -0 0.00319202)
(0.00319203 -0.00136256 -0 0.00319203 -0 0.00319203)
(0.00312404 -0.0013214 -0 0.00312403 -0 0.00312403)
(0.00312404 -0.00132144 -0 0.00312403 -0 0.00312403)
(0.00312402 -0.00132142 -0 0.00312403 -0 0.00312403)
(0.00312403 -0.00132166 -0 0.00312404 -0 0.00312403)
(0.00305577 -0.00127984 -0 0.00305576 -0 0.00305576)
(0.00305577 -0.00127988 -0 0.00305576 -0 0.00305576)
(0.00305575 -0.00127988 -0 0.00305576 -0 0.00305576)
(0.00305576 -0.00128014 -0 0.00305577 -0 0.00305577)
(0.0029873 -0.00123766 -0 0.00298728 -0 0.00298729)
(0.00298729 -0.00123772 -0 0.00298728 -0 0.00298729)
(0.00298728 -0.00123772 -0 0.00298729 -0 0.00298728)
(0.00298729 -0.00123802 -0 0.0029873 -0 0.0029873)
(0.0029187 -0.00119487 -0 0.00291869 -0 0.00291869)
(0.00291869 -0.00119493 -0 0.00291868 -0 0.00291869)
(0.00291868 -0.00119494 -0 0.00291869 -0 0.00291869)
(0.00291869 -0.00119527 -0 0.00291871 -0 0.0029187)
(0.00285006 -0.00115145 -0 0.00285005 -0 0.00285006)
(0.00285006 -0.00115149 -0 0.00285004 -0 0.00285005)
(0.00285004 -0.00115155 -0 0.00285005 -0 0.00285005)
(0.00285006 -0.00115191 -0 0.00285007 -0 0.00285007)
(0.00278149 -0.00110741 -0 0.00278148 -0 0.00278149)
(0.00278148 -0.00110749 -0 0.00278147 -0 0.00278148)
(0.00278147 -0.0011075 -0 0.00278148 -0 0.00278148)
(0.00278149 -0.00110791 -0 0.0027815 -0 0.0027815)
(0.0027131 -0.0010627 -0 0.00271309 -0 0.00271309)
(0.00271309 -0.00106281 -0 0.00271308 -0 0.00271309)
(0.00271308 -0.00106282 -0 0.00271309 -0 0.00271308)
(0.0027131 -0.00106329 -0 0.00271312 -0 0.00271311)
(0.00264502 -0.0010174 -0 0.00264501 -0 0.00264501)
(0.00264501 -0.00101749 -0 0.002645 -0 0.00264501)
(0.00264499 -0.00101754 -0 0.00264501 -0 0.002645)
(0.00264502 -0.00101801 -0 0.00264504 -0 0.00264503)
(0.0025774 -0.000971435 -0 0.00257739 -0 0.00257739)
(0.00257739 -0.000971528 -0 0.00257738 -0 0.00257739)
(0.00257737 -0.000971587 -0 0.00257738 -0 0.00257738)
(0.00257741 -0.000972101 -0 0.00257742 -0 0.00257741)
(0.00251041 -0.00092487 -0 0.0025104 -0 0.0025104)
(0.0025104 -0.000924872 -0 0.00251039 -0 0.00251039)
(0.00251038 -0.000925035 -0 0.00251039 -0 0.00251038)
(0.00251042 -0.000925526 -0 0.00251043 -0 0.00251043)
(0.00244424 -0.000877605 -0 0.00244423 -0 0.00244424)
(0.00244422 -0.000877649 -0 0.00244421 -0 0.00244422)
(0.00244421 -0.000877767 -0 0.00244422 -0 0.00244421)
(0.00244425 -0.000878313 -0 0.00244426 -0 0.00244426)
(0.00237911 -0.000829699 -0 0.0023791 -0 0.00237911)
(0.00237908 -0.000829708 -0 0.00237907 -0 0.00237908)
(0.00237907 -0.000829912 -0 0.00237908 -0 0.00237907)
(0.00237912 -0.000830425 -0 0.00237913 -0 0.00237912)
(0.00231525 -0.000781096 -0 0.00231525 -0 0.00231525)
(0.00231522 -0.000781211 -0 0.00231522 -0 0.00231522)
(0.00231521 -0.000781309 -0 0.00231522 -0 0.00231522)
(0.00231527 -0.000781898 -0 0.00231527 -0 0.00231527)
(0.00225295 -0.000731942 -0 0.00225294 -0 0.00225294)
(0.00225291 -0.000731913 -0 0.00225291 -0 0.00225291)
(0.0022529 -0.000732157 -0 0.00225291 -0 0.00225291)
(0.00225297 -0.000732679 -0 0.00225297 -0 0.00225297)
(0.00219249 -0.000682048 -0 0.00219249 -0 0.00219249)
(0.00219245 -0.000682045 -0 0.00219245 -0 0.00219245)
(0.00219245 -0.000682262 -0 0.00219245 -0 0.00219245)
(0.00219251 -0.00068281 -0 0.00219251 -0 0.00219251)
(0.00213422 -0.000631447 -0 0.00213422 -0 0.00213422)
(0.00213417 -0.000631565 -0 0.00213418 -0 0.00213417)
(0.00213417 -0.000631684 -0 0.00213417 -0 0.00213417)
(0.00213425 -0.000632271 -0 0.00213424 -0 0.00213424)
(0.00207849 -0.000580312 -0 0.0020785 -0 0.00207849)
(0.00207844 -0.000580271 -0 0.00207845 -0 0.00207844)
(0.00207844 -0.000580532 -0 0.00207844 -0 0.00207844)
(0.00207852 -0.000581029 -0 0.00207852 -0 0.00207852)
(0.0020257 -0.000528416 -0 0.00202571 -0 0.00202571)
(0.00202564 -0.000528406 -0 0.00202565 -0 0.00202565)
(0.00202565 -0.000528621 -0 0.00202565 -0 0.00202565)
(0.00202573 -0.000529125 -0 0.00202573 -0 0.00202573)
(0.00197626 -0.000475804 -0 0.00197627 -0 0.00197626)
(0.0019762 -0.000475908 -0 0.00197621 -0 0.00197621)
(0.00197621 -0.000476016 -0 0.0019762 -0 0.00197621)
(0.0019763 -0.000476534 -0 0.00197629 -0 0.00197629)
(0.00193061 -0.000422632 -0 0.00193062 -0 0.00193061)
(0.00193055 -0.000422588 -0 0.00193056 -0 0.00193055)
(0.00193056 -0.00042282 -0 0.00193055 -0 0.00193055)
(0.00193065 -0.000423223 -0 0.00193063 -0 0.00193064)
(0.00188919 -0.000368677 -0 0.0018892 -0 0.0018892)
(0.00188913 -0.000368672 -0 0.00188914 -0 0.00188913)
(0.00188914 -0.000368843 -0 0.00188913 -0 0.00188914)
(0.00188923 -0.000369231 -0 0.00188921 -0 0.00188922)
(0.00185246 -0.000314033 -0 0.00185247 -0 0.00185247)
(0.00185239 -0.000314023 -0 0.00185241 -0 0.0018524)
(0.00185241 -0.000314157 -0 0.0018524 -0 0.0018524)
(0.0018525 -0.000314527 -0 0.00185248 -0 0.00185249)
(0.00182086 -0.000258632 -0 0.00182088 -0 0.00182087)
(0.0018208 -0.000258695 -0 0.00182082 -0 0.00182081)
(0.00182082 -0.000258733 -0 0.0018208 -0 0.00182081)
(0.00182091 -0.000259094 -0 0.00182089 -0 0.0018209)
(0.00179484 -0.000202574 -0 0.00179486 -0 0.00179485)
(0.00179478 -0.000202557 -0 0.0017948 -0 0.00179479)
(0.00179479 -0.000202631 -0 0.00179478 -0 0.00179479)
(0.00179489 -0.000202896 -0 0.00179487 -0 0.00179488)
(0.00177481 -0.000145703 -0 0.00177482 -0 0.00177482)
(0.00177475 -0.000145716 -0 0.00177477 -0 0.00177476)
(0.00177476 -0.000145755 -0 0.00177475 -0 0.00177475)
(0.00177485 -0.000145941 -0 0.00177483 -0 0.00177484)
(0.00176114 -8.80709e-05 -0 0.00176115 -0 0.00176114)
(0.00176108 -8.80619e-05 -0 0.0017611 -0 0.00176109)
(0.00176109 -8.81019e-05 -0 0.00176108 -0 0.00176109)
(0.00176118 -8.82135e-05 -0 0.00176116 -0 0.00176117)
(0.00175416 -2.95297e-05 -0 0.00175417 -0 0.00175417)
(0.0017541 -2.95382e-05 -0 0.00175412 -0 0.00175411)
(0.00175412 -2.95413e-05 -0 0.00175411 -0 0.00175411)
(0.00175421 -2.95808e-05 -0 0.00175418 -0 0.0017542)
)
;

boundaryField
{
    inlet
    {
        type            cyclic;
    }
    outlet
    {
        type            cyclic;
    }
    fixedWalls-bottom
    {
        type            kqRWallFunction;
        value           nonuniform List<symmTensor> 4((1.10094e-06 -0 -0 1.10094e-06 -0 1.10094e-06) (1.10061e-06 -0 -0 1.10061e-06 -0 1.10061e-06) (1.10049e-06 -0 -0 1.10049e-06 -0 1.10049e-06) (1.10057e-06 -0 -0 1.10057e-06 -0 1.10057e-06));
    }
    fixedWalls-top
    {
        type            symmetry;
    }
    frontAndBack
    {
        type            empty;
    }
}


// ************************************************************************* //
