/*--------------------------------*- C++ -*----------------------------------*\
  =========                 |
  \\      /  F ield         | OpenFOAM: The Open Source CFD Toolbox
   \\    /   O peration     | Website:  https://openfoam.org
    \\  /    A nd           | Version:  10
     \\/     M anipulation  |
\*---------------------------------------------------------------------------*/
FoamFile
{
    format      ascii;
    class       volVectorField;
    location    "4468";
    object      U;
}
// * * * * * * * * * * * * * * * * * * * * * * * * * * * * * * * * * * * * * //

dimensions      [0 1 -1 0 0 0 0];

internalField   nonuniform List<vector> 
400
(
(0.0439372 -6.79657e-10 0)
(0.0439363 1.04316e-09 0)
(0.0439354 6.64225e-10 0)
(0.0439356 -1.04297e-09 0)
(0.131994 -7.57515e-09 0)
(0.131991 1.74212e-08 0)
(0.131988 7.54064e-09 0)
(0.131989 -1.74204e-08 0)
(0.220312 -2.02953e-08 0)
(0.220308 5.26364e-08 0)
(0.220303 2.02633e-08 0)
(0.220305 -5.26351e-08 0)
(0.306012 -3.67594e-08 0)
(0.306005 1.0464e-07 0)
(0.306 3.673e-08 0)
(0.306002 -1.04638e-07 0)
(0.383308 -5.21462e-08 0)
(0.383302 1.59735e-07 0)
(0.383297 5.21182e-08 0)
(0.3833 -1.59732e-07 0)
(0.448283 -6.14278e-08 0)
(0.448279 2.0271e-07 0)
(0.448276 6.14009e-08 0)
(0.448278 -2.02707e-07 0)
(0.501667 -6.10681e-08 0)
(0.501665 2.32387e-07 0)
(0.501662 6.10418e-08 0)
(0.501665 -2.32384e-07 0)
(0.546067 -5.18523e-08 0)
(0.546066 2.48534e-07 0)
(0.546065 5.18265e-08 0)
(0.546068 -2.48531e-07 0)
(0.583635 -3.4747e-08 0)
(0.583633 2.59512e-07 0)
(0.583633 3.47216e-08 0)
(0.583637 -2.59509e-07 0)
(0.615868 -1.27992e-08 0)
(0.615866 2.6802e-07 0)
(0.615866 1.27744e-08 0)
(0.61587 -2.68017e-07 0)
(0.643903 1.06858e-08 0)
(0.643901 2.75183e-07 0)
(0.643902 -1.07102e-08 0)
(0.643906 -2.75179e-07 0)
(0.668602 3.28987e-08 0)
(0.668601 2.81248e-07 0)
(0.668601 -3.29227e-08 0)
(0.668605 -2.81245e-07 0)
(0.690615 5.19149e-08 0)
(0.690613 2.85961e-07 0)
(0.690614 -5.19386e-08 0)
(0.690617 -2.85957e-07 0)
(0.710434 6.67153e-08 0)
(0.710433 2.88823e-07 0)
(0.710434 -6.67386e-08 0)
(0.710436 -2.8882e-07 0)
(0.72844 7.70683e-08 0)
(0.72844 2.89402e-07 0)
(0.72844 -7.70913e-08 0)
(0.728441 -2.89398e-07 0)
(0.744927 8.32955e-08 0)
(0.744927 2.87454e-07 0)
(0.744928 -8.33182e-08 0)
(0.744928 -2.8745e-07 0)
(0.760126 8.60456e-08 0)
(0.760126 2.82949e-07 0)
(0.760127 -8.6068e-08 0)
(0.760127 -2.82945e-07 0)
(0.774221 8.61158e-08 0)
(0.774221 2.76031e-07 0)
(0.774222 -8.61379e-08 0)
(0.774221 -2.76027e-07 0)
(0.787359 8.43262e-08 0)
(0.78736 2.66984e-07 0)
(0.787361 -8.43482e-08 0)
(0.78736 -2.6698e-07 0)
(0.799662 8.14279e-08 0)
(0.799663 2.56182e-07 0)
(0.799664 -8.14496e-08 0)
(0.799662 -2.56177e-07 0)
(0.811228 7.80444e-08 0)
(0.811229 2.44065e-07 0)
(0.81123 -7.80659e-08 0)
(0.811228 -2.4406e-07 0)
(0.822139 7.46368e-08 0)
(0.82214 2.31118e-07 0)
(0.822141 -7.4658e-08 0)
(0.82214 -2.31114e-07 0)
(0.832465 7.14976e-08 0)
(0.832466 2.17829e-07 0)
(0.832467 -7.15185e-08 0)
(0.832466 -2.17825e-07 0)
(0.842264 6.87699e-08 0)
(0.842265 2.04646e-07 0)
(0.842266 -6.87907e-08 0)
(0.842265 -2.04642e-07 0)
(0.851587 6.64925e-08 0)
(0.851588 1.91929e-07 0)
(0.851589 -6.6513e-08 0)
(0.851588 -1.91925e-07 0)
(0.860477 6.4655e-08 0)
(0.860478 1.79928e-07 0)
(0.860479 -6.46753e-08 0)
(0.860478 -1.79924e-07 0)
(0.868972 6.3225e-08 0)
(0.868973 1.68778e-07 0)
(0.868974 -6.3245e-08 0)
(0.868973 -1.68773e-07 0)
(0.877106 6.21749e-08 0)
(0.877106 1.58538e-07 0)
(0.877107 -6.21948e-08 0)
(0.877106 -1.58534e-07 0)
(0.884907 6.14805e-08 0)
(0.884907 1.49225e-07 0)
(0.884908 -6.15001e-08 0)
(0.884907 -1.4922e-07 0)
(0.892402 6.1115e-08 0)
(0.892402 1.40838e-07 0)
(0.892403 -6.11344e-08 0)
(0.892402 -1.40833e-07 0)
(0.899614 6.1043e-08 0)
(0.899614 1.33368e-07 0)
(0.899615 -6.10623e-08 0)
(0.899614 -1.33364e-07 0)
(0.906564 6.12107e-08 0)
(0.906565 1.26791e-07 0)
(0.906565 -6.12298e-08 0)
(0.906565 -1.26787e-07 0)
(0.913272 6.15447e-08 0)
(0.913273 1.21062e-07 0)
(0.913273 -6.15636e-08 0)
(0.913273 -1.21057e-07 0)
(0.919755 6.19617e-08 0)
(0.919756 1.16115e-07 0)
(0.919756 -6.19804e-08 0)
(0.919756 -1.1611e-07 0)
(0.926029 6.23772e-08 0)
(0.926029 1.11864e-07 0)
(0.926029 -6.23957e-08 0)
(0.926029 -1.11859e-07 0)
(0.932107 6.27113e-08 0)
(0.932108 1.08212e-07 0)
(0.932108 -6.27297e-08 0)
(0.932108 -1.08207e-07 0)
(0.938004 6.28873e-08 0)
(0.938004 1.05067e-07 0)
(0.938004 -6.29055e-08 0)
(0.938004 -1.05062e-07 0)
(0.943731 6.28316e-08 0)
(0.943731 1.02363e-07 0)
(0.943731 -6.28496e-08 0)
(0.943731 -1.02358e-07 0)
(0.949298 6.24867e-08 0)
(0.949299 1.00079e-07 0)
(0.949299 -6.25045e-08 0)
(0.949299 -1.00074e-07 0)
(0.954717 6.18421e-08 0)
(0.954717 9.82469e-08 0)
(0.954717 -6.18598e-08 0)
(0.954717 -9.82418e-08 0)
(0.959995 6.09809e-08 0)
(0.959995 9.69375e-08 0)
(0.959995 -6.09984e-08 0)
(0.959995 -9.69324e-08 0)
(0.96514 6.01224e-08 0)
(0.96514 9.6197e-08 0)
(0.96514 -6.01397e-08 0)
(0.96514 -9.61919e-08 0)
(0.970158 5.96223e-08 0)
(0.970158 9.59425e-08 0)
(0.970158 -5.96393e-08 0)
(0.970158 -9.59373e-08 0)
(0.975054 5.9878e-08 0)
(0.975054 9.58259e-08 0)
(0.975054 -5.98949e-08 0)
(0.975054 -9.58207e-08 0)
(0.979831 6.1091e-08 0)
(0.979831 9.51253e-08 0)
(0.979832 -6.11077e-08 0)
(0.979832 -9.51201e-08 0)
(0.984491 6.28762e-08 0)
(0.984491 9.27637e-08 0)
(0.984492 -6.28928e-08 0)
(0.984492 -9.27585e-08 0)
(0.989035 6.37869e-08 0)
(0.989035 8.75866e-08 0)
(0.989036 -6.38034e-08 0)
(0.989035 -8.75814e-08 0)
(0.993462 6.09463e-08 0)
(0.993463 7.89924e-08 0)
(0.993463 -6.09626e-08 0)
(0.993462 -7.89869e-08 0)
(0.997774 5.02218e-08 0)
(0.997775 6.77897e-08 0)
(0.997775 -5.02375e-08 0)
(0.997773 -6.77842e-08 0)
(1.00197 2.79266e-08 0)
(1.00197 5.6559e-08 0)
(1.00197 -2.79416e-08 0)
(1.00197 -5.6554e-08 0)
(1.00607 -4.78122e-09 0)
(1.00607 4.81144e-08 0)
(1.00607 4.76477e-09 0)
(1.00607 -4.81098e-08 0)
(1.01008 -3.68519e-08 0)
(1.01008 4.17891e-08 0)
(1.01008 3.68357e-08 0)
(1.01007 -4.17837e-08 0)
(1.01401 -6.44702e-08 0)
(1.01401 3.91272e-08 0)
(1.01401 6.44555e-08 0)
(1.01401 -3.91215e-08 0)
(1.01789 -7.8643e-08 0)
(1.01789 3.77057e-08 0)
(1.01789 7.86281e-08 0)
(1.01789 -3.77003e-08 0)
(1.0217 -8.33853e-08 0)
(1.0217 3.83117e-08 0)
(1.0217 8.33704e-08 0)
(1.0217 -3.83065e-08 0)
(1.02546 -8.25151e-08 0)
(1.02546 4.09593e-08 0)
(1.02546 8.25004e-08 0)
(1.02546 -4.09541e-08 0)
(1.02917 -7.86551e-08 0)
(1.02917 4.49136e-08 0)
(1.02917 7.86406e-08 0)
(1.02917 -4.49084e-08 0)
(1.03283 -7.36148e-08 0)
(1.03283 4.92862e-08 0)
(1.03283 7.36005e-08 0)
(1.03283 -4.9281e-08 0)
(1.03644 -6.85844e-08 0)
(1.03644 5.34236e-08 0)
(1.03643 6.85703e-08 0)
(1.03644 -5.34184e-08 0)
(1.04 -6.39964e-08 0)
(1.04 5.7103e-08 0)
(1.04 6.39825e-08 0)
(1.04 -5.70978e-08 0)
(1.04351 -5.98598e-08 0)
(1.04351 6.0246e-08 0)
(1.04351 5.98461e-08 0)
(1.04351 -6.02409e-08 0)
(1.04698 -5.59544e-08 0)
(1.04698 6.28427e-08 0)
(1.04698 5.59409e-08 0)
(1.04698 -6.28377e-08 0)
(1.05041 -5.19481e-08 0)
(1.05041 6.49084e-08 0)
(1.05041 5.19349e-08 0)
(1.05041 -6.49033e-08 0)
(1.0538 -4.74751e-08 0)
(1.0538 6.64549e-08 0)
(1.0538 4.74621e-08 0)
(1.0538 -6.64499e-08 0)
(1.05715 -4.21967e-08 0)
(1.05715 6.74677e-08 0)
(1.05715 4.21839e-08 0)
(1.05715 -6.74627e-08 0)
(1.06046 -3.5858e-08 0)
(1.06046 6.7913e-08 0)
(1.06046 3.58454e-08 0)
(1.06046 -6.79081e-08 0)
(1.06373 -2.83718e-08 0)
(1.06373 6.77883e-08 0)
(1.06373 2.83594e-08 0)
(1.06373 -6.77834e-08 0)
(1.06697 -1.99089e-08 0)
(1.06697 6.72307e-08 0)
(1.06697 1.98967e-08 0)
(1.06697 -6.72259e-08 0)
(1.07016 -1.0893e-08 0)
(1.07016 6.66762e-08 0)
(1.07016 1.08811e-08 0)
(1.07016 -6.66714e-08 0)
(1.07332 -1.87809e-09 0)
(1.07332 6.66677e-08 0)
(1.07332 1.86643e-09 0)
(1.07332 -6.66629e-08 0)
(1.07644 6.69157e-09 0)
(1.07644 6.77916e-08 0)
(1.07644 -6.70296e-09 0)
(1.07644 -6.77869e-08 0)
(1.07952 1.4684e-08 0)
(1.07952 7.0103e-08 0)
(1.07952 -1.46952e-08 0)
(1.07952 -7.00983e-08 0)
(1.08256 2.17504e-08 0)
(1.08256 7.37723e-08 0)
(1.08256 -2.17614e-08 0)
(1.08256 -7.37676e-08 0)
(1.08556 2.83274e-08 0)
(1.08556 7.82136e-08 0)
(1.08556 -2.83381e-08 0)
(1.08556 -7.82089e-08 0)
(1.08852 3.45297e-08 0)
(1.08852 8.35735e-08 0)
(1.08852 -3.45401e-08 0)
(1.08852 -8.35688e-08 0)
(1.09144 4.08585e-08 0)
(1.09144 8.96676e-08 0)
(1.09144 -4.08688e-08 0)
(1.09144 -8.9663e-08 0)
(1.09431 4.74705e-08 0)
(1.09431 9.66187e-08 0)
(1.09431 -4.74804e-08 0)
(1.09431 -9.66142e-08 0)
(1.09713 5.36963e-08 0)
(1.09713 1.04396e-07 0)
(1.09713 -5.3706e-08 0)
(1.09713 -1.04391e-07 0)
(1.0999 6.0082e-08 0)
(1.0999 1.12263e-07 0)
(1.0999 -6.00914e-08 0)
(1.0999 -1.12258e-07 0)
(1.10262 6.63722e-08 0)
(1.10262 1.2065e-07 0)
(1.10262 -6.63814e-08 0)
(1.10263 -1.20646e-07 0)
(1.10529 7.37485e-08 0)
(1.10529 1.29179e-07 0)
(1.10529 -7.37574e-08 0)
(1.10529 -1.29175e-07 0)
(1.10789 8.19931e-08 0)
(1.10789 1.38036e-07 0)
(1.10789 -8.20017e-08 0)
(1.10789 -1.38032e-07 0)
(1.11043 8.98657e-08 0)
(1.11043 1.46395e-07 0)
(1.11043 -8.98741e-08 0)
(1.11043 -1.4639e-07 0)
(1.1129 9.71256e-08 0)
(1.1129 1.52919e-07 0)
(1.1129 -9.71338e-08 0)
(1.1129 -1.52915e-07 0)
(1.1153 1.02397e-07 0)
(1.1153 1.58e-07 0)
(1.1153 -1.02405e-07 0)
(1.1153 -1.57996e-07 0)
(1.11762 1.07506e-07 0)
(1.11762 1.61279e-07 0)
(1.11762 -1.07514e-07 0)
(1.11762 -1.61274e-07 0)
(1.11985 1.10445e-07 0)
(1.11985 1.63385e-07 0)
(1.11985 -1.10453e-07 0)
(1.11985 -1.63381e-07 0)
(1.12199 1.12487e-07 0)
(1.12199 1.63678e-07 0)
(1.12199 -1.12494e-07 0)
(1.12199 -1.63674e-07 0)
(1.12402 1.13258e-07 0)
(1.12402 1.62031e-07 0)
(1.12402 -1.13264e-07 0)
(1.12402 -1.62027e-07 0)
(1.12594 1.10698e-07 0)
(1.12594 1.57571e-07 0)
(1.12594 -1.10705e-07 0)
(1.12594 -1.57567e-07 0)
(1.12775 1.06644e-07 0)
(1.12775 1.50716e-07 0)
(1.12775 -1.06649e-07 0)
(1.12775 -1.50712e-07 0)
(1.12942 1.00829e-07 0)
(1.12942 1.41959e-07 0)
(1.12942 -1.00834e-07 0)
(1.12942 -1.41955e-07 0)
(1.13095 9.17921e-08 0)
(1.13095 1.31371e-07 0)
(1.13095 -9.17968e-08 0)
(1.13095 -1.31367e-07 0)
(1.13233 8.16556e-08 0)
(1.13234 1.19888e-07 0)
(1.13234 -8.16597e-08 0)
(1.13233 -1.19885e-07 0)
(1.13355 6.87265e-08 0)
(1.13355 1.06497e-07 0)
(1.13355 -6.87301e-08 0)
(1.13355 -1.06495e-07 0)
(1.1346 5.51797e-08 0)
(1.1346 9.10372e-08 0)
(1.1346 -5.51827e-08 0)
(1.1346 -9.1035e-08 0)
(1.13545 4.12995e-08 0)
(1.13545 7.24604e-08 0)
(1.13545 -4.13018e-08 0)
(1.13545 -7.24591e-08 0)
(1.13611 2.92577e-08 0)
(1.13611 5.2385e-08 0)
(1.13611 -2.92589e-08 0)
(1.13611 -5.23831e-08 0)
(1.13656 1.75021e-08 0)
(1.13656 3.11312e-08 0)
(1.13656 -1.75028e-08 0)
(1.13656 -3.11307e-08 0)
(1.13679 6.12306e-09 0)
(1.13679 1.02872e-08 0)
(1.13679 -6.12315e-09 0)
(1.13679 -1.0288e-08 0)
)
;

boundaryField
{
    inlet
    {
        type            cyclic;
    }
    outlet
    {
        type            cyclic;
    }
    fixedWalls-bottom
    {
        type            noSlip;
    }
    fixedWalls-top
    {
        type            symmetry;
    }
    frontAndBack
    {
        type            empty;
    }
}


// ************************************************************************* //
