/*--------------------------------*- C++ -*----------------------------------*\
  =========                 |
  \\      /  F ield         | OpenFOAM: The Open Source CFD Toolbox
   \\    /   O peration     | Website:  https://openfoam.org
    \\  /    A nd           | Version:  10
     \\/     M anipulation  |
\*---------------------------------------------------------------------------*/
FoamFile
{
    format      ascii;
    class       volScalarField;
    location    "3435";
    object      nut;
}
// * * * * * * * * * * * * * * * * * * * * * * * * * * * * * * * * * * * * * //

dimensions      [0 2 -1 0 0 0 0];

internalField   nonuniform List<scalar> 
400
(
1.27504e-11
1.27684e-11
1.27803e-11
1.27782e-11
2.23623e-09
2.23938e-09
2.24147e-09
2.24109e-09
4.7006e-08
4.70724e-08
4.71163e-08
4.71084e-08
3.6127e-07
3.61786e-07
3.62122e-07
3.6206e-07
1.62126e-06
1.62365e-06
1.62515e-06
1.62486e-06
5.19963e-06
5.20774e-06
5.2125e-06
5.21152e-06
1.31593e-05
1.31818e-05
1.31936e-05
1.31909e-05
2.7788e-05
2.78413e-05
2.78652e-05
2.78588e-05
5.08221e-05
5.09301e-05
5.09709e-05
5.09585e-05
8.29045e-05
8.30936e-05
8.31536e-05
8.31325e-05
0.000123662
0.000123951
0.000124029
0.000123998
0.000172202
0.000172594
0.000172684
0.000172643
0.000227578
0.000228057
0.00022815
0.000228101
0.000289016
0.000289546
0.00028963
0.000289579
0.000355549
0.000355736
0.000355853
0.000355841
0.000423013
0.000423146
0.000423245
0.000423229
0.000494734
0.00049486
0.000494925
0.000494888
0.000571026
0.000571156
0.000571179
0.000571107
0.000651736
0.000651878
0.000651856
0.000651735
0.000736592
0.000736756
0.000736691
0.00073651
0.000825261
0.000825458
0.000825352
0.000825108
0.000917344
0.000917578
0.000917438
0.000917135
0.00101233
0.0010126
0.00101243
0.00101208
0.00110956
0.00110986
0.00110967
0.00110929
0.00120866
0.00120897
0.00120877
0.00120837
0.00130907
0.00130939
0.00130918
0.00130878
0.0014102
0.00141052
0.00141032
0.00140994
0.00151149
0.00151179
0.0015116
0.00151126
0.00161236
0.00161265
0.00161247
0.00161218
0.00171231
0.00171256
0.00171239
0.00171216
0.00181085
0.00181106
0.0018109
0.00181074
0.00190758
0.00190774
0.00190758
0.0019075
0.00200213
0.00200223
0.00200207
0.00200207
0.00209423
0.00209426
0.00209411
0.00209417
0.00218363
0.0021836
0.00218347
0.00218359
0.00227018
0.0022701
0.00227001
0.00227018
0.00235379
0.00235369
0.00235367
0.00235386
0.00243442
0.00243437
0.00243443
0.00243457
0.00251212
0.00251221
0.00251236
0.00251233
0.00258699
0.00258731
0.00258754
0.00258712
0.00265912
0.00265973
0.00265998
0.00265891
0.0027285
0.00272937
0.00272952
0.00272758
0.00279464
0.00279556
0.00279551
0.00279276
0.00285581
0.00285629
0.00285612
0.00285359
0.00290724
0.00290659
0.00290701
0.00290807
0.00294538
0.00294489
0.00294518
0.00295159
0.00297963
0.00297906
0.00297946
0.00298637
0.0030102
0.00300953
0.0030101
0.00301749
0.00303751
0.00303677
0.00303752
0.00304533
0.00306169
0.00306103
0.00306186
0.00306998
0.00308296
0.00308232
0.00308317
0.00309163
0.0031015
0.00310077
0.00310162
0.00311043
0.00311741
0.00311644
0.0031174
0.00312649
0.00313081
0.00312928
0.00313067
0.00313993
0.00314117
0.00313993
0.00314124
0.00315091
0.00314917
0.00314803
0.00314937
0.00315948
0.00315483
0.00315374
0.00315524
0.00316564
0.00315815
0.00315706
0.00315873
0.0031694
0.00315914
0.00315796
0.00315977
0.0031708
0.0031578
0.00315645
0.00315834
0.00316984
0.00315413
0.00315256
0.00315444
0.00316653
0.00314814
0.0031463
0.00314809
0.00316088
0.00313977
0.00313774
0.0031393
0.00315291
0.00312874
0.00312722
0.00312799
0.00314257
0.0031157
0.00311364
0.00311484
0.0031296
0.00310043
0.00309736
0.00309946
0.00311407
0.00308174
0.00307936
0.0030808
0.00309624
0.00306031
0.00305867
0.00305998
0.00307562
0.00303658
0.00303422
0.00303681
0.00305248
0.0030103
0.00300771
0.00301066
0.00302663
0.00298134
0.0029785
0.00298165
0.00299792
0.0029496
0.00294658
0.00294968
0.00296624
0.00291503
0.00291196
0.00291466
0.00293149
0.00287757
0.0028748
0.00287643
0.00289362
0.00283719
0.00283555
0.00283485
0.00285269
0.00279388
0.00279241
0.00279081
0.00280871
0.00274774
0.00274632
0.00274449
0.00276164
0.00269908
0.00269699
0.00269503
0.00271197
0.0026465
0.00264426
0.00264167
0.00266001
0.00259086
0.00258774
0.00258517
0.00260517
0.00253256
0.00252833
0.00252613
0.00254666
0.00247059
0.00246597
0.00246365
0.00248426
0.00240476
0.00240065
0.00239822
0.00241832
0.00233549
0.00233294
0.00233089
0.00234832
0.0022643
0.0022637
0.00226096
0.00227484
0.00219032
0.00219092
0.00218602
0.00220018
0.00211457
0.00211523
0.00210884
0.0021234
0.00203693
0.0020371
0.00202858
0.00204523
0.00195708
0.00195687
0.00194732
0.00196517
0.00187551
0.00187496
0.00186532
0.00188365
0.00179292
0.00179205
0.00178285
0.00180146
0.00171003
0.00170917
0.00170048
0.00171923
0.00162713
0.00162759
0.00161852
0.00163703
0.00154262
0.00154677
0.00153717
0.00155646
0.00146481
0.00147036
0.00145993
0.00148048
0.00139196
0.00140191
0.0013884
0.00141345
0.00132844
0.00134333
0.00132434
0.00135948
0.00128282
0.00129794
0.00128638
0.00131576
0.00126702
0.00125865
0.00126103
0.00129246
0.00126225
0.00125568
0.00125399
0.00128945
)
;

boundaryField
{
    inlet
    {
        type            cyclic;
    }
    outlet
    {
        type            cyclic;
    }
    fixedWalls-bottom
    {
        type            nutkWallFunction;
        Cmu             0.09;
        kappa           0.41;
        E               9.8;
        value           uniform 0;
    }
    fixedWalls-top
    {
        type            symmetry;
    }
    frontAndBack
    {
        type            empty;
    }
}


// ************************************************************************* //
