/*--------------------------------*- C++ -*----------------------------------*\
  =========                 |
  \\      /  F ield         | OpenFOAM: The Open Source CFD Toolbox
   \\    /   O peration     | Website:  https://openfoam.org
    \\  /    A nd           | Version:  10
     \\/     M anipulation  |
\*---------------------------------------------------------------------------*/
FoamFile
{
    format      ascii;
    class       volSymmTensorField;
    location    "3435";
    object      R;
}
// * * * * * * * * * * * * * * * * * * * * * * * * * * * * * * * * * * * * * //

dimensions      [0 2 -2 0 0 0 0];

internalField   nonuniform List<symmTensor> 
400
(
(6.10424e-08 -1.10829e-10 -0 6.10424e-08 -0 6.10424e-08)
(6.11284e-08 -1.10991e-10 -0 6.11284e-08 -0 6.11284e-08)
(6.11854e-08 -1.11103e-10 -0 6.11854e-08 -0 6.11854e-08)
(6.11752e-08 -1.11085e-10 -0 6.11752e-08 -0 6.11752e-08)
(1.83143e-06 -1.93467e-08 -0 1.83143e-06 -0 1.83143e-06)
(1.83401e-06 -1.93751e-08 -0 1.83401e-06 -0 1.83401e-06)
(1.83572e-06 -1.93946e-08 -0 1.83572e-06 -0 1.83572e-06)
(1.83541e-06 -1.93915e-08 -0 1.83541e-06 -0 1.83541e-06)
(1.29658e-05 -4.04659e-07 -0 1.29658e-05 -0 1.29658e-05)
(1.29841e-05 -4.05256e-07 -0 1.29841e-05 -0 1.29841e-05)
(1.29962e-05 -4.05665e-07 -0 1.29962e-05 -0 1.29962e-05)
(1.2994e-05 -4.05598e-07 -0 1.2994e-05 -0 1.2994e-05)
(4.70494e-05 -3.09191e-06 -0 4.70494e-05 -0 4.70494e-05)
(4.71162e-05 -3.09655e-06 -0 4.71162e-05 -0 4.71162e-05)
(4.71599e-05 -3.09967e-06 -0 4.71599e-05 -0 4.71599e-05)
(4.7152e-05 -3.09914e-06 -0 4.7152e-05 -0 4.7152e-05)
(0.000121008 -1.37614e-05 -0 0.000121008 -0 0.000121008)
(0.000121182 -1.37827e-05 -0 0.000121182 -0 0.000121182)
(0.000121293 -1.37965e-05 -0 0.000121293 -0 0.000121293)
(0.000121273 -1.3794e-05 -0 0.000121272 -0 0.000121273)
(0.000252635 -4.35445e-05 -0 0.000252635 -0 0.000252635)
(0.000253003 -4.36163e-05 -0 0.000253003 -0 0.000253003)
(0.00025323 -4.3659e-05 -0 0.00025323 -0 0.00025323)
(0.000253187 -4.36502e-05 -0 0.000253186 -0 0.000253186)
(0.000456585 -0.000107755 -0 0.000456584 -0 0.000456584)
(0.000457256 -0.00010795 -0 0.000457258 -0 0.000457257)
(0.00045765 -0.000108051 -0 0.000457651 -0 0.000457651)
(0.000457571 -0.000108027 -0 0.000457569 -0 0.00045757)
(0.000738806 -0.0002197 -0 0.000738804 -0 0.000738805)
(0.00073989 -0.000220136 -0 0.000739895 -0 0.000739892)
(0.000740489 -0.000220329 -0 0.000740491 -0 0.00074049)
(0.000740362 -0.000220272 -0 0.000740357 -0 0.000740359)
(0.00109225 -0.000382364 -0 0.00109224 -0 0.00109225)
(0.00109381 -0.000383185 -0 0.00109382 -0 0.00109381)
(0.00109462 -0.000383482 -0 0.00109462 -0 0.00109462)
(0.00109443 -0.000383376 -0 0.00109442 -0 0.00109443)
(0.00149771 -0.000585345 -0 0.0014977 -0 0.00149771)
(0.00149972 -0.000586653 -0 0.00149974 -0 0.00149973)
(0.0015007 -0.000587035 -0 0.00150071 -0 0.0015007)
(0.00150046 -0.000586865 -0 0.00150044 -0 0.00150045)
(0.00193009 -0.000810247 -0 0.00193009 -0 0.00193009)
(0.00193244 -0.000812037 -0 0.00193246 -0 0.00193245)
(0.00193352 -0.000812456 -0 0.00193352 -0 0.00193352)
(0.00193323 -0.000812221 -0 0.00193321 -0 0.00193322)
(0.00236571 -0.00103903 -0 0.0023657 -0 0.00236571)
(0.00236821 -0.00104118 -0 0.00236823 -0 0.00236822)
(0.00236931 -0.00104158 -0 0.00236931 -0 0.00236931)
(0.00236898 -0.00104129 -0 0.00236896 -0 0.00236897)
(0.00278661 -0.00125886 -0 0.00278661 -0 0.00278661)
(0.00278907 -0.00126118 -0 0.00278909 -0 0.00278908)
(0.00279012 -0.00126153 -0 0.00279012 -0 0.00279012)
(0.00278976 -0.0012612 -0 0.00278975 -0 0.00278976)
(0.00318142 -0.00146278 -0 0.00318142 -0 0.00318142)
(0.00318368 -0.0014652 -0 0.00318368 -0 0.00318368)
(0.00318462 -0.00146545 -0 0.00318461 -0 0.00318462)
(0.00318424 -0.00146511 -0 0.00318423 -0 0.00318423)
(0.0035442 -0.00164806 -0 0.00354421 -0 0.0035442)
(0.00354618 -0.00164898 -0 0.00354618 -0 0.00354618)
(0.00354698 -0.00164934 -0 0.00354696 -0 0.00354697)
(0.00354656 -0.00164915 -0 0.00354657 -0 0.00354657)
(0.00387321 -0.00180105 -0 0.00387324 -0 0.00387322)
(0.00387501 -0.00180188 -0 0.00387501 -0 0.00387501)
(0.00387562 -0.00180216 -0 0.0038756 -0 0.00387561)
(0.00387514 -0.00180194 -0 0.00387515 -0 0.00387515)
(0.00416971 -0.00193893 -0 0.00416975 -0 0.00416973)
(0.00417133 -0.00193967 -0 0.00417133 -0 0.00417133)
(0.00417174 -0.00193985 -0 0.0041717 -0 0.00417172)
(0.00417117 -0.0019396 -0 0.00417117 -0 0.00417117)
(0.00443476 -0.00206218 -0 0.0044348 -0 0.00443478)
(0.00443621 -0.00206285 -0 0.00443622 -0 0.00443622)
(0.0044364 -0.00206293 -0 0.00443636 -0 0.00443638)
(0.00443573 -0.00206262 -0 0.00443572 -0 0.00443573)
(0.0046699 -0.00217154 -0 0.00466995 -0 0.00466993)
(0.00467121 -0.00217214 -0 0.00467122 -0 0.00467122)
(0.00467119 -0.00217211 -0 0.00467114 -0 0.00467116)
(0.00467039 -0.00217175 -0 0.00467038 -0 0.00467038)
(0.00487701 -0.00226787 -0 0.00487706 -0 0.00487703)
(0.0048782 -0.00226842 -0 0.00487822 -0 0.00487821)
(0.00487798 -0.0022683 -0 0.00487792 -0 0.00487795)
(0.00487706 -0.00226788 -0 0.00487704 -0 0.00487705)
(0.00505809 -0.00235214 -0 0.00505814 -0 0.00505812)
(0.00505922 -0.00235265 -0 0.00505924 -0 0.00505923)
(0.00505881 -0.00235245 -0 0.00505876 -0 0.00505878)
(0.00505779 -0.00235198 -0 0.00505777 -0 0.00505778)
(0.00521524 -0.00242531 -0 0.00521529 -0 0.00521526)
(0.00521632 -0.00242581 -0 0.00521634 -0 0.00521633)
(0.00521575 -0.00242553 -0 0.0052157 -0 0.00521573)
(0.00521467 -0.00242504 -0 0.00521465 -0 0.00521466)
(0.00535049 -0.0024883 -0 0.00535053 -0 0.00535051)
(0.00535152 -0.00248878 -0 0.00535154 -0 0.00535153)
(0.00535083 -0.00248845 -0 0.00535079 -0 0.00535081)
(0.00534972 -0.00248794 -0 0.0053497 -0 0.00534971)
(0.00546579 -0.00254176 -0 0.00546583 -0 0.00546581)
(0.00546678 -0.00254222 -0 0.0054668 -0 0.00546679)
(0.005466 -0.00254185 -0 0.00546596 -0 0.00546598)
(0.0054649 -0.00254134 -0 0.00546487 -0 0.00546489)
(0.00556299 -0.00258688 -0 0.00556302 -0 0.005563)
(0.00556393 -0.00258732 -0 0.00556395 -0 0.00556394)
(0.00556309 -0.00258692 -0 0.00556307 -0 0.00556308)
(0.00556203 -0.00258643 -0 0.00556201 -0 0.00556202)
(0.00564378 -0.00262441 -0 0.0056438 -0 0.00564379)
(0.00564468 -0.00262483 -0 0.0056447 -0 0.00564469)
(0.00564383 -0.00262442 -0 0.0056438 -0 0.00564382)
(0.00564282 -0.00262395 -0 0.0056428 -0 0.00564281)
(0.00570976 -0.00265507 -0 0.00570978 -0 0.00570977)
(0.00571062 -0.00265547 -0 0.00571063 -0 0.00571062)
(0.00570977 -0.00265507 -0 0.00570975 -0 0.00570976)
(0.00570884 -0.00265463 -0 0.00570883 -0 0.00570883)
(0.00576238 -0.00267952 -0 0.00576239 -0 0.00576239)
(0.00576319 -0.0026799 -0 0.0057632 -0 0.00576319)
(0.00576237 -0.00267951 -0 0.00576236 -0 0.00576236)
(0.00576153 -0.00267913 -0 0.00576152 -0 0.00576153)
(0.00580297 -0.00269839 -0 0.00580298 -0 0.00580297)
(0.00580372 -0.00269874 -0 0.00580373 -0 0.00580372)
(0.00580295 -0.00269838 -0 0.00580294 -0 0.00580294)
(0.00580222 -0.00269804 -0 0.00580222 -0 0.00580222)
(0.00583274 -0.00271223 -0 0.00583275 -0 0.00583275)
(0.00583343 -0.00271255 -0 0.00583343 -0 0.00583343)
(0.0058327 -0.00271221 -0 0.0058327 -0 0.0058327)
(0.0058321 -0.00271193 -0 0.0058321 -0 0.0058321)
(0.00585279 -0.00272156 -0 0.0058528 -0 0.0058528)
(0.00585341 -0.00272184 -0 0.00585341 -0 0.00585341)
(0.00585273 -0.00272152 -0 0.00585272 -0 0.00585273)
(0.00585226 -0.00272131 -0 0.00585227 -0 0.00585226)
(0.00586411 -0.00272682 -0 0.00586412 -0 0.00586411)
(0.00586464 -0.00272706 -0 0.00586463 -0 0.00586464)
(0.00586401 -0.00272676 -0 0.005864 -0 0.005864)
(0.00586367 -0.00272661 -0 0.00586368 -0 0.00586368)
(0.00586757 -0.00272843 -0 0.00586758 -0 0.00586758)
(0.00586801 -0.00272862 -0 0.005868 -0 0.005868)
(0.00586741 -0.00272835 -0 0.0058674 -0 0.0058674)
(0.00586721 -0.00272826 -0 0.00586722 -0 0.00586722)
(0.00586397 -0.00272675 -0 0.00586398 -0 0.00586397)
(0.0058643 -0.0027269 -0 0.00586428 -0 0.00586429)
(0.00586373 -0.00272663 -0 0.00586371 -0 0.00586372)
(0.00586367 -0.00272661 -0 0.00586368 -0 0.00586367)
(0.005854 -0.00272212 -0 0.00585402 -0 0.00585401)
(0.00585421 -0.00272221 -0 0.0058542 -0 0.00585421)
(0.00585368 -0.00272196 -0 0.00585365 -0 0.00585367)
(0.00585375 -0.002722 -0 0.00585376 -0 0.00585375)
(0.00583828 -0.00271481 -0 0.00583831 -0 0.0058383)
(0.00583839 -0.00271485 -0 0.00583838 -0 0.00583838)
(0.00583788 -0.00271461 -0 0.00583784 -0 0.00583786)
(0.00583808 -0.00271471 -0 0.00583809 -0 0.00583809)
(0.00581738 -0.0027051 -0 0.00581742 -0 0.0058174)
(0.00581739 -0.00270509 -0 0.00581738 -0 0.00581739)
(0.00581689 -0.00270485 -0 0.00581685 -0 0.00581687)
(0.00581724 -0.00270502 -0 0.00581725 -0 0.00581724)
(0.0057918 -0.0026932 -0 0.00579185 -0 0.00579183)
(0.00579173 -0.00269315 -0 0.00579171 -0 0.00579172)
(0.00579122 -0.00269291 -0 0.00579116 -0 0.00579119)
(0.00579172 -0.00269316 -0 0.00579174 -0 0.00579173)
(0.005762 -0.00267935 -0 0.00576206 -0 0.00576203)
(0.00576185 -0.00267926 -0 0.00576182 -0 0.00576184)
(0.00576132 -0.002679 -0 0.00576126 -0 0.00576129)
(0.00576198 -0.00267933 -0 0.00576201 -0 0.00576199)
(0.00572839 -0.00266372 -0 0.00572845 -0 0.00572842)
(0.00572817 -0.00266359 -0 0.00572811 -0 0.00572814)
(0.00572761 -0.00266333 -0 0.00572755 -0 0.00572758)
(0.00572842 -0.00266373 -0 0.00572848 -0 0.00572845)
(0.00569134 -0.00264649 -0 0.00569138 -0 0.00569136)
(0.00569105 -0.00264632 -0 0.00569094 -0 0.005691)
(0.00569046 -0.00264606 -0 0.00569042 -0 0.00569044)
(0.00569141 -0.00264653 -0 0.00569151 -0 0.00569146)
(0.00565119 -0.00262781 -0 0.00565118 -0 0.00565119)
(0.00565083 -0.00262761 -0 0.00565067 -0 0.00565075)
(0.00565019 -0.00262735 -0 0.00565021 -0 0.0056502)
(0.00565127 -0.00262788 -0 0.00565142 -0 0.00565134)
(0.00560826 -0.00260783 -0 0.00560816 -0 0.00560821)
(0.00560781 -0.0026076 -0 0.00560761 -0 0.00560771)
(0.00560713 -0.00260735 -0 0.00560723 -0 0.00560718)
(0.00560831 -0.00260792 -0 0.00560851 -0 0.00560841)
(0.0055628 -0.00258667 -0 0.00556259 -0 0.00556269)
(0.00556227 -0.00258641 -0 0.00556202 -0 0.00556215)
(0.00556153 -0.00258617 -0 0.00556173 -0 0.00556163)
(0.00556278 -0.00258676 -0 0.00556303 -0 0.00556291)
(0.00551495 -0.00256299 -0 0.00551467 -0 0.0055148)
(0.00551434 -0.00256234 -0 0.00551407 -0 0.00551421)
(0.00551357 -0.00256262 -0 0.00551385 -0 0.00551372)
(0.0055149 -0.00256451 -0 0.00551517 -0 0.00551503)
(0.00546473 -0.00253454 -0 0.00546446 -0 0.0054646)
(0.00546407 -0.00253437 -0 0.00546381 -0 0.00546394)
(0.00546334 -0.00253464 -0 0.00546361 -0 0.00546348)
(0.00546474 -0.00253889 -0 0.00546501 -0 0.00546487)
(0.00541222 -0.00250684 -0 0.00541201 -0 0.00541212)
(0.00541152 -0.00250674 -0 0.00541127 -0 0.00541139)
(0.00541085 -0.00250721 -0 0.00541106 -0 0.00541095)
(0.00541233 -0.00251111 -0 0.00541259 -0 0.00541246)
(0.0053575 -0.00247816 -0 0.00535734 -0 0.00535742)
(0.00535675 -0.00247808 -0 0.00535651 -0 0.00535663)
(0.00535614 -0.00247872 -0 0.00535629 -0 0.00535621)
(0.0053577 -0.00248312 -0 0.00535794 -0 0.00535782)
(0.00530062 -0.00244866 -0 0.00530052 -0 0.00530057)
(0.00529981 -0.00244853 -0 0.0052996 -0 0.0052997)
(0.00529925 -0.00244933 -0 0.00529936 -0 0.00529931)
(0.00530092 -0.0024542 -0 0.00530113 -0 0.00530103)
(0.00524165 -0.00241828 -0 0.00524159 -0 0.00524162)
(0.00524078 -0.00241814 -0 0.00524058 -0 0.00524068)
(0.00524026 -0.00241904 -0 0.00524033 -0 0.0052403)
(0.00524202 -0.00242428 -0 0.00524221 -0 0.00524212)
(0.00518064 -0.00238711 -0 0.0051806 -0 0.00518062)
(0.0051797 -0.00238689 -0 0.00517953 -0 0.00517962)
(0.00517921 -0.00238785 -0 0.00517925 -0 0.00517923)
(0.00518106 -0.00239346 -0 0.00518123 -0 0.00518114)
(0.00511764 -0.00235515 -0 0.00511762 -0 0.00511763)
(0.00511664 -0.00235482 -0 0.00511649 -0 0.00511656)
(0.00511616 -0.00235582 -0 0.00511618 -0 0.00511617)
(0.00511809 -0.00236177 -0 0.00511824 -0 0.00511816)
(0.00505269 -0.00232241 -0 0.00505268 -0 0.00505269)
(0.00505164 -0.00232197 -0 0.00505151 -0 0.00505157)
(0.00505116 -0.002323 -0 0.00505117 -0 0.00505117)
(0.00505316 -0.00232923 -0 0.0050533 -0 0.00505323)
(0.00498586 -0.002289 -0 0.00498586 -0 0.00498586)
(0.00498476 -0.00228823 -0 0.00498465 -0 0.0049847)
(0.00498428 -0.00228946 -0 0.00498428 -0 0.00498428)
(0.00498634 -0.00229587 -0 0.00498645 -0 0.00498639)
(0.00491718 -0.00225458 -0 0.00491718 -0 0.00491718)
(0.00491604 -0.00225393 -0 0.00491595 -0 0.004916)
(0.00491555 -0.00225505 -0 0.00491554 -0 0.00491554)
(0.00491766 -0.00226174 -0 0.00491775 -0 0.00491771)
(0.0048467 -0.00221953 -0 0.00484671 -0 0.00484671)
(0.00484554 -0.0022188 -0 0.00484547 -0 0.0048455)
(0.00484503 -0.00221993 -0 0.00484502 -0 0.00484502)
(0.00484718 -0.00222686 -0 0.00484726 -0 0.00484722)
(0.00477448 -0.00218374 -0 0.00477448 -0 0.00477448)
(0.00477331 -0.00218297 -0 0.00477324 -0 0.00477327)
(0.00477277 -0.00218412 -0 0.00477276 -0 0.00477276)
(0.00477495 -0.00219122 -0 0.00477502 -0 0.00477499)
(0.00470055 -0.00214722 -0 0.00470055 -0 0.00470055)
(0.00469938 -0.00214641 -0 0.00469931 -0 0.00469935)
(0.00469881 -0.00214757 -0 0.00469881 -0 0.00469881)
(0.00470101 -0.00215483 -0 0.00470108 -0 0.00470105)
(0.00462496 -0.00210998 -0 0.00462497 -0 0.00462496)
(0.0046238 -0.00210911 -0 0.00462373 -0 0.00462377)
(0.0046232 -0.00211028 -0 0.0046232 -0 0.0046232)
(0.00462541 -0.00211771 -0 0.00462548 -0 0.00462545)
(0.00454776 -0.00207202 -0 0.00454776 -0 0.00454776)
(0.00454661 -0.00207107 -0 0.00454653 -0 0.00454657)
(0.00454598 -0.00207225 -0 0.00454598 -0 0.00454598)
(0.00454819 -0.00207988 -0 0.00454827 -0 0.00454823)
(0.00446897 -0.00203334 -0 0.00446897 -0 0.00446897)
(0.00446783 -0.00203231 -0 0.00446775 -0 0.00446779)
(0.00446718 -0.00203349 -0 0.00446718 -0 0.00446718)
(0.00446939 -0.00204133 -0 0.00446947 -0 0.00446943)
(0.00438863 -0.00199396 -0 0.00438863 -0 0.00438863)
(0.00438751 -0.00199283 -0 0.00438743 -0 0.00438747)
(0.00438683 -0.001994 -0 0.00438683 -0 0.00438683)
(0.00438904 -0.00200208 -0 0.00438912 -0 0.00438908)
(0.00430677 -0.00195388 -0 0.00430677 -0 0.00430677)
(0.00430566 -0.0019526 -0 0.00430559 -0 0.00430563)
(0.00430496 -0.0019538 -0 0.00430496 -0 0.00430496)
(0.00430717 -0.00196211 -0 0.00430725 -0 0.00430721)
(0.00422342 -0.00191294 -0 0.00422342 -0 0.00422342)
(0.00422233 -0.00191189 -0 0.00422227 -0 0.0042223)
(0.00422161 -0.00191278 -0 0.00422161 -0 0.00422161)
(0.00422382 -0.00192143 -0 0.00422388 -0 0.00422385)
(0.00413861 -0.00187144 -0 0.0041386 -0 0.0041386)
(0.00413754 -0.00187022 -0 0.00413749 -0 0.00413751)
(0.00413679 -0.00187127 -0 0.0041368 -0 0.0041368)
(0.004139 -0.00187995 -0 0.00413905 -0 0.00413902)
(0.00405235 -0.00182934 -0 0.00405234 -0 0.00405235)
(0.00405129 -0.00182775 -0 0.00405126 -0 0.00405127)
(0.00405055 -0.00182916 -0 0.00405056 -0 0.00405055)
(0.00405273 -0.00183769 -0 0.00405276 -0 0.00405275)
(0.00396467 -0.0017862 -0 0.00396465 -0 0.00396466)
(0.00396362 -0.00178489 -0 0.00396361 -0 0.00396362)
(0.00396288 -0.001786 -0 0.0039629 -0 0.00396289)
(0.00396504 -0.0017948 -0 0.00396505 -0 0.00396505)
(0.00387557 -0.00174234 -0 0.00387554 -0 0.00387556)
(0.00387456 -0.00174133 -0 0.00387456 -0 0.00387456)
(0.0038738 -0.00174233 -0 0.00387383 -0 0.00387382)
(0.00387594 -0.00175105 -0 0.00387594 -0 0.00387594)
(0.00378508 -0.00169786 -0 0.00378505 -0 0.00378506)
(0.00378409 -0.00169661 -0 0.0037841 -0 0.0037841)
(0.00378335 -0.00169802 -0 0.00378338 -0 0.00378337)
(0.00378544 -0.00170661 -0 0.00378544 -0 0.00378544)
(0.0036932 -0.00165268 -0 0.00369319 -0 0.00369319)
(0.00369226 -0.00165151 -0 0.00369227 -0 0.00369226)
(0.00369154 -0.00165286 -0 0.00369155 -0 0.00369154)
(0.00369357 -0.00166141 -0 0.00369356 -0 0.00369357)
(0.00359996 -0.00160678 -0 0.00359998 -0 0.00359997)
(0.00359907 -0.00160562 -0 0.00359907 -0 0.00359907)
(0.00359837 -0.00160695 -0 0.00359835 -0 0.00359836)
(0.00360034 -0.00161545 -0 0.00360033 -0 0.00360034)
(0.00350537 -0.00156019 -0 0.00350543 -0 0.0035054)
(0.00350454 -0.00155902 -0 0.00350454 -0 0.00350454)
(0.00350386 -0.00156023 -0 0.00350381 -0 0.00350384)
(0.00350576 -0.00156872 -0 0.00350576 -0 0.00350576)
(0.00340947 -0.00151291 -0 0.00340956 -0 0.00340952)
(0.00340869 -0.00151171 -0 0.0034087 -0 0.00340869)
(0.00340803 -0.0015127 -0 0.00340794 -0 0.00340798)
(0.00340986 -0.00152121 -0 0.00340986 -0 0.00340986)
(0.00331227 -0.00146493 -0 0.00331239 -0 0.00331233)
(0.00331155 -0.00146369 -0 0.00331156 -0 0.00331156)
(0.00331088 -0.00146435 -0 0.00331076 -0 0.00331082)
(0.00331265 -0.00147293 -0 0.00331265 -0 0.00331265)
(0.00321381 -0.00141624 -0 0.00321393 -0 0.00321387)
(0.00321317 -0.00141524 -0 0.00321318 -0 0.00321317)
(0.00321244 -0.00141509 -0 0.00321232 -0 0.00321238)
(0.00321416 -0.00142389 -0 0.00321416 -0 0.00321416)
(0.00311411 -0.00136681 -0 0.00311421 -0 0.00311416)
(0.00311355 -0.00136568 -0 0.00311356 -0 0.00311355)
(0.00311274 -0.00136524 -0 0.00311264 -0 0.00311269)
(0.00311443 -0.00137408 -0 0.00311442 -0 0.00311442)
(0.00301321 -0.00131662 -0 0.00301328 -0 0.00301325)
(0.00301273 -0.00131549 -0 0.00301273 -0 0.00301273)
(0.00301186 -0.00131486 -0 0.00301178 -0 0.00301182)
(0.00301348 -0.00132347 -0 0.00301348 -0 0.00301348)
(0.00291117 -0.00126585 -0 0.00291121 -0 0.00291119)
(0.00291075 -0.00126449 -0 0.00291074 -0 0.00291075)
(0.00290983 -0.00126378 -0 0.0029098 -0 0.00290981)
(0.00291137 -0.00127221 -0 0.00291138 -0 0.00291138)
(0.00280804 -0.001214 -0 0.00280804 -0 0.00280804)
(0.00280766 -0.00121273 -0 0.00280765 -0 0.00280765)
(0.00280672 -0.00121182 -0 0.00280672 -0 0.00280672)
(0.00280819 -0.00122041 -0 0.00280821 -0 0.0028082)
(0.00270387 -0.00116142 -0 0.00270386 -0 0.00270387)
(0.00270352 -0.00116006 -0 0.00270351 -0 0.00270352)
(0.00270258 -0.0011592 -0 0.00270259 -0 0.00270259)
(0.00270401 -0.00116792 -0 0.00270402 -0 0.00270402)
(0.00259876 -0.00110829 -0 0.00259876 -0 0.00259876)
(0.00259841 -0.0011068 -0 0.00259843 -0 0.00259842)
(0.00259751 -0.00110609 -0 0.00259752 -0 0.00259751)
(0.00259892 -0.00111456 -0 0.0025989 -0 0.00259891)
(0.00249282 -0.00105435 -0 0.00249283 -0 0.00249283)
(0.00249245 -0.00105293 -0 0.00249252 -0 0.00249248)
(0.0024916 -0.00105213 -0 0.00249159 -0 0.00249159)
(0.00249299 -0.00106028 -0 0.00249293 -0 0.00249296)
(0.00238615 -0.000999649 -0 0.00238619 -0 0.00238617)
(0.00238578 -0.000998433 -0 0.00238588 -0 0.00238583)
(0.00238499 -0.00099743 -0 0.00238494 -0 0.00238496)
(0.00238635 -0.00100523 -0 0.00238624 -0 0.00238629)
(0.0022789 -0.000944214 -0 0.00227897 -0 0.00227894)
(0.00227856 -0.000943382 -0 0.00227867 -0 0.00227862)
(0.00227784 -0.000942257 -0 0.00227777 -0 0.00227781)
(0.00227912 -0.000949245 -0 0.002279 -0 0.00227906)
(0.00217129 -0.000888452 -0 0.00217137 -0 0.00217133)
(0.00217102 -0.000888041 -0 0.00217111 -0 0.00217107)
(0.00217038 -0.000886529 -0 0.00217031 -0 0.00217034)
(0.00217148 -0.000892453 -0 0.00217139 -0 0.00217144)
(0.00206357 -0.000831929 -0 0.00206364 -0 0.00206361)
(0.00206341 -0.000831768 -0 0.00206345 -0 0.00206343)
(0.00206281 -0.000829577 -0 0.00206274 -0 0.00206277)
(0.00206372 -0.00083555 -0 0.00206368 -0 0.0020637)
(0.00195606 -0.000774967 -0 0.0019561 -0 0.00195608)
(0.00195598 -0.000774824 -0 0.00195598 -0 0.00195598)
(0.0019554 -0.000772365 -0 0.00195535 -0 0.00195538)
(0.00195616 -0.000778135 -0 0.00195616 -0 0.00195616)
(0.00184913 -0.00071751 -0 0.00184916 -0 0.00184915)
(0.00184911 -0.000717291 -0 0.00184909 -0 0.0018491)
(0.00184852 -0.000714406 -0 0.0018485 -0 0.00184851)
(0.00184919 -0.000720473 -0 0.00184921 -0 0.0018492)
(0.00174326 -0.00065951 -0 0.00174326 -0 0.00174326)
(0.00174325 -0.000659256 -0 0.00174322 -0 0.00174324)
(0.00174263 -0.000656287 -0 0.00174263 -0 0.00174263)
(0.00174327 -0.000662354 -0 0.00174329 -0 0.00174328)
(0.00163898 -0.000601091 -0 0.00163896 -0 0.00163897)
(0.00163896 -0.00060083 -0 0.00163894 -0 0.00163895)
(0.00163832 -0.000597958 -0 0.00163834 -0 0.00163833)
(0.00163893 -0.000603856 -0 0.00163894 -0 0.00163894)
(0.00153696 -0.000542378 -0 0.00153694 -0 0.00153695)
(0.00153693 -0.00054215 -0 0.00153693 -0 0.00153693)
(0.00153629 -0.000539479 -0 0.00153632 -0 0.0015363)
(0.00153688 -0.00054513 -0 0.00153689 -0 0.00153688)
(0.00143807 -0.000483524 -0 0.00143803 -0 0.00143805)
(0.00143801 -0.0004834 -0 0.00143802 -0 0.00143802)
(0.00143739 -0.000480961 -0 0.00143743 -0 0.00143741)
(0.00143797 -0.00048631 -0 0.00143796 -0 0.00143797)
(0.00134331 -0.000424699 -0 0.00134327 -0 0.00134329)
(0.00134324 -0.000424874 -0 0.00134325 -0 0.00134325)
(0.00134265 -0.000422472 -0 0.00134269 -0 0.00134267)
(0.00134321 -0.000427397 -0 0.00134319 -0 0.0013432)
(0.00125386 -0.000365386 -0 0.00125383 -0 0.00125385)
(0.00125382 -0.000366314 -0 0.00125383 -0 0.00125383)
(0.00125328 -0.000363971 -0 0.00125332 -0 0.0012533)
(0.00125381 -0.000368642 -0 0.00125381 -0 0.00125381)
(0.00117128 -0.000307162 -0 0.00117125 -0 0.00117127)
(0.00117129 -0.000308224 -0 0.00117128 -0 0.00117129)
(0.00117078 -0.000306018 -0 0.00117082 -0 0.0011708)
(0.00117131 -0.000310363 -0 0.00117132 -0 0.00117131)
(0.00109741 -0.000249304 -0 0.00109737 -0 0.00109739)
(0.00109747 -0.000250879 -0 0.00109746 -0 0.00109746)
(0.00109695 -0.000248693 -0 0.00109698 -0 0.00109696)
(0.00109753 -0.000252898 -0 0.00109754 -0 0.00109754)
(0.00103429 -0.000192342 -0 0.00103426 -0 0.00103428)
(0.00103443 -0.000194201 -0 0.00103443 -0 0.00103443)
(0.00103381 -0.000191805 -0 0.00103384 -0 0.00103382)
(0.0010346 -0.000196398 -0 0.0010346 -0 0.0010346)
(0.000984217 -0.000136708 -0 0.000984204 -0 0.000984211)
(0.000984397 -0.000138364 -0 0.000984398 -0 0.000984397)
(0.000983766 -0.000137205 -0 0.000983779 -0 0.000983772)
(0.000984671 -0.00013998 -0 0.00098467 -0 0.00098467)
(0.00094948 -8.25359e-05 -0 0.000949493 -0 0.000949488)
(0.0009494 -8.23945e-05 -0 0.00094942 -0 0.000949409)
(0.000948894 -8.24471e-05 -0 0.000948881 -0 0.000948886)
(0.000949894 -8.42612e-05 -0 0.000949873 -0 0.000949885)
(0.000931647 -2.76444e-05 -0 0.00093168 -0 0.000931666)
(0.00093139 -2.77156e-05 -0 0.000931431 -0 0.000931412)
(0.000930887 -2.76463e-05 -0 0.000930855 -0 0.000930869)
(0.000931998 -2.83133e-05 -0 0.000931956 -0 0.000931975)
)
;

boundaryField
{
    inlet
    {
        type            cyclic;
    }
    outlet
    {
        type            cyclic;
    }
    fixedWalls-bottom
    {
        type            kqRWallFunction;
        value           nonuniform List<symmTensor> 4((6.10424e-08 -0 -0 6.10424e-08 -0 6.10424e-08) (6.11284e-08 -0 -0 6.11284e-08 -0 6.11284e-08) (6.11854e-08 -0 -0 6.11854e-08 -0 6.11854e-08) (6.11752e-08 -0 -0 6.11752e-08 -0 6.11752e-08));
    }
    fixedWalls-top
    {
        type            symmetry;
    }
    frontAndBack
    {
        type            empty;
    }
}


// ************************************************************************* //
