/*--------------------------------*- C++ -*----------------------------------*\
  =========                 |
  \\      /  F ield         | OpenFOAM: The Open Source CFD Toolbox
   \\    /   O peration     | Website:  https://openfoam.org
    \\  /    A nd           | Version:  10
     \\/     M anipulation  |
\*---------------------------------------------------------------------------*/
FoamFile
{
    format      ascii;
    class       volVectorField;
    location    "3435";
    object      U;
}
// * * * * * * * * * * * * * * * * * * * * * * * * * * * * * * * * * * * * * //

dimensions      [0 1 -1 0 0 0 0];

internalField   nonuniform List<vector> 
400
(
(0.020098 1.06997e-09 0)
(0.0200991 -1.45808e-09 0)
(0.0201006 -1.00909e-09 0)
(0.0201008 1.45674e-09 0)
(0.0603908 1.58081e-08 0)
(0.0603942 -2.46146e-08 0)
(0.0603987 -1.5685e-08 0)
(0.0603991 2.46097e-08 0)
(0.101058 4.62255e-08 0)
(0.101064 -7.37318e-08 0)
(0.101071 -4.61005e-08 0)
(0.101072 7.37223e-08 0)
(0.142086 9.34169e-08 0)
(0.142094 -1.51981e-07 0)
(0.142105 -9.32981e-08 0)
(0.142106 1.51966e-07 0)
(0.183421 1.57027e-07 0)
(0.183433 -2.6153e-07 0)
(0.183447 -1.56908e-07 0)
(0.183448 2.6151e-07 0)
(0.224923 2.35951e-07 0)
(0.224938 -4.04937e-07 0)
(0.224955 -2.3583e-07 0)
(0.224955 4.04914e-07 0)
(0.266301 3.27435e-07 0)
(0.26632 -5.83413e-07 0)
(0.26634 -3.27312e-07 0)
(0.266339 5.83385e-07 0)
(0.307101 4.26117e-07 0)
(0.307123 -7.93743e-07 0)
(0.307145 -4.25994e-07 0)
(0.307143 7.9371e-07 0)
(0.346762 5.23818e-07 0)
(0.346786 -1.02536e-06 0)
(0.346807 -5.23694e-07 0)
(0.346804 1.02532e-06 0)
(0.384742 6.10581e-07 0)
(0.384767 -1.25985e-06 0)
(0.384786 -6.10456e-07 0)
(0.384781 1.25981e-06 0)
(0.420648 6.76768e-07 0)
(0.420669 -1.47413e-06 0)
(0.420685 -6.76639e-07 0)
(0.420679 1.47409e-06 0)
(0.454274 7.15425e-07 0)
(0.454289 -1.6453e-06 0)
(0.4543 -7.15293e-07 0)
(0.454293 1.64525e-06 0)
(0.48558 7.24037e-07 0)
(0.485588 -1.75502e-06 0)
(0.485595 -7.239e-07 0)
(0.485586 1.75496e-06 0)
(0.51464 7.04105e-07 0)
(0.514639 -1.79601e-06 0)
(0.514643 -7.03969e-07 0)
(0.514633 1.79596e-06 0)
(0.541592 6.52259e-07 0)
(0.54159 -1.80215e-06 0)
(0.54159 -6.52126e-07 0)
(0.541579 1.80208e-06 0)
(0.566661 5.75033e-07 0)
(0.566663 -1.78673e-06 0)
(0.566661 -5.74895e-07 0)
(0.566647 1.78666e-06 0)
(0.590051 4.73794e-07 0)
(0.590056 -1.78426e-06 0)
(0.590052 -4.73654e-07 0)
(0.590037 1.7842e-06 0)
(0.611896 3.58264e-07 0)
(0.611903 -1.7971e-06 0)
(0.611899 -3.58123e-07 0)
(0.611883 1.79702e-06 0)
(0.632321 2.38311e-07 0)
(0.63233 -1.82226e-06 0)
(0.632326 -2.38168e-07 0)
(0.63231 1.82219e-06 0)
(0.651446 1.22071e-07 0)
(0.651455 -1.85685e-06 0)
(0.651452 -1.21927e-07 0)
(0.651437 1.85677e-06 0)
(0.669383 1.5687e-08 0)
(0.669392 -1.89769e-06 0)
(0.66939 -1.55409e-08 0)
(0.669376 1.89761e-06 0)
(0.686239 -7.68104e-08 0)
(0.686247 -1.94116e-06 0)
(0.686246 7.6958e-08 0)
(0.686234 1.94108e-06 0)
(0.702113 -1.53435e-07 0)
(0.70212 -1.9837e-06 0)
(0.702119 1.53584e-07 0)
(0.702109 1.98361e-06 0)
(0.717097 -2.13873e-07 0)
(0.717103 -2.02247e-06 0)
(0.717103 2.14024e-07 0)
(0.717095 2.02238e-06 0)
(0.731277 -2.59204e-07 0)
(0.731282 -2.05555e-06 0)
(0.731282 2.59356e-07 0)
(0.731276 2.05546e-06 0)
(0.74473 -2.91335e-07 0)
(0.744734 -2.0819e-06 0)
(0.744734 2.91489e-07 0)
(0.74473 2.08181e-06 0)
(0.757526 -3.12775e-07 0)
(0.757529 -2.10112e-06 0)
(0.757529 3.12931e-07 0)
(0.757526 2.10102e-06 0)
(0.769729 -3.26328e-07 0)
(0.769731 -2.11325e-06 0)
(0.769731 3.26484e-07 0)
(0.769729 2.11315e-06 0)
(0.781397 -3.3482e-07 0)
(0.781398 -2.11876e-06 0)
(0.781397 3.34978e-07 0)
(0.781397 2.11865e-06 0)
(0.792582 -3.40887e-07 0)
(0.792583 -2.11844e-06 0)
(0.792582 3.41047e-07 0)
(0.792582 2.11834e-06 0)
(0.803332 -3.4678e-07 0)
(0.803332 -2.11342e-06 0)
(0.803331 3.46942e-07 0)
(0.803331 2.11331e-06 0)
(0.813688 -3.54265e-07 0)
(0.813688 -2.10504e-06 0)
(0.813687 3.54428e-07 0)
(0.813687 2.10493e-06 0)
(0.823689 -3.64625e-07 0)
(0.82369 -2.09476e-06 0)
(0.823688 3.64789e-07 0)
(0.823688 2.09465e-06 0)
(0.83337 -3.78801e-07 0)
(0.83337 -2.08397e-06 0)
(0.833368 3.78967e-07 0)
(0.833368 2.08386e-06 0)
(0.842759 -3.97604e-07 0)
(0.84276 -2.0737e-06 0)
(0.842758 3.97771e-07 0)
(0.842757 2.07359e-06 0)
(0.851885 -4.2193e-07 0)
(0.851887 -2.06422e-06 0)
(0.851884 4.22099e-07 0)
(0.851883 2.06411e-06 0)
(0.860772 -4.52754e-07 0)
(0.860774 -2.05457e-06 0)
(0.86077 4.52924e-07 0)
(0.860769 2.05444e-06 0)
(0.86944 -4.90757e-07 0)
(0.869442 -2.04195e-06 0)
(0.869438 4.9093e-07 0)
(0.869437 2.04182e-06 0)
(0.877909 -5.3539e-07 0)
(0.877911 -2.02129e-06 0)
(0.877905 5.35565e-07 0)
(0.877905 2.02116e-06 0)
(0.886195 -5.83109e-07 0)
(0.886195 -1.98501e-06 0)
(0.886189 5.83286e-07 0)
(0.88619 1.98488e-06 0)
(0.894312 -6.24539e-07 0)
(0.894311 -1.92366e-06 0)
(0.894302 6.24716e-07 0)
(0.894307 1.92353e-06 0)
(0.902273 -6.40768e-07 0)
(0.902269 -1.82809e-06 0)
(0.902259 6.40944e-07 0)
(0.90227 1.82797e-06 0)
(0.91009 -6.02381e-07 0)
(0.910083 -1.69352e-06 0)
(0.910072 6.02561e-07 0)
(0.910091 1.69342e-06 0)
(0.917777 -4.829e-07 0)
(0.917766 -1.52393e-06 0)
(0.917755 4.8309e-07 0)
(0.917784 1.52379e-06 0)
(0.925351 -2.98307e-07 0)
(0.925339 -1.3315e-06 0)
(0.925328 2.98495e-07 0)
(0.925364 1.3313e-06 0)
(0.93284 -9.13883e-08 0)
(0.932829 -1.13039e-06 0)
(0.932817 9.15731e-08 0)
(0.932852 1.13024e-06 0)
(0.940261 9.95899e-08 0)
(0.940251 -9.34903e-07 0)
(0.94024 -9.94009e-08 0)
(0.940269 9.34785e-07 0)
(0.947623 2.36075e-07 0)
(0.947615 -7.51399e-07 0)
(0.947604 -2.35884e-07 0)
(0.947627 7.51256e-07 0)
(0.954932 3.29953e-07 0)
(0.954924 -5.82886e-07 0)
(0.954914 -3.2976e-07 0)
(0.954933 5.82734e-07 0)
(0.962191 3.91996e-07 0)
(0.962185 -4.29946e-07 0)
(0.962175 -3.91801e-07 0)
(0.962191 4.29793e-07 0)
(0.969406 4.29323e-07 0)
(0.969401 -2.92156e-07 0)
(0.969392 -4.29125e-07 0)
(0.969404 2.91999e-07 0)
(0.976581 4.49436e-07 0)
(0.976576 -1.68761e-07 0)
(0.976568 -4.49236e-07 0)
(0.976578 1.68602e-07 0)
(0.983717 4.58934e-07 0)
(0.983714 -6.03315e-08 0)
(0.983707 -4.58733e-07 0)
(0.983715 6.01677e-08 0)
(0.990819 4.61199e-07 0)
(0.990816 3.16443e-08 0)
(0.99081 -4.60995e-07 0)
(0.990817 -3.18114e-08 0)
(0.997888 4.60656e-07 0)
(0.997886 1.08858e-07 0)
(0.997881 -4.60449e-07 0)
(0.997886 -1.09026e-07 0)
(1.00493 4.57487e-07 0)
(1.00493 1.72981e-07 0)
(1.00492 -4.57277e-07 0)
(1.00493 -1.73154e-07 0)
(1.01194 4.5411e-07 0)
(1.01194 2.3004e-07 0)
(1.01193 -4.53898e-07 0)
(1.01193 -2.30216e-07 0)
(1.01892 4.51107e-07 0)
(1.01892 2.84973e-07 0)
(1.01891 -4.50891e-07 0)
(1.01892 -2.85153e-07 0)
(1.02587 4.488e-07 0)
(1.02587 3.42398e-07 0)
(1.02587 -4.48581e-07 0)
(1.02587 -3.42582e-07 0)
(1.0328 4.47412e-07 0)
(1.0328 4.05243e-07 0)
(1.0328 -4.47191e-07 0)
(1.0328 -4.05431e-07 0)
(1.0397 4.46766e-07 0)
(1.0397 4.73779e-07 0)
(1.0397 -4.46541e-07 0)
(1.0397 -4.73971e-07 0)
(1.04658 4.4612e-07 0)
(1.04658 5.45302e-07 0)
(1.04658 -4.45891e-07 0)
(1.04658 -5.45499e-07 0)
(1.05344 4.4537e-07 0)
(1.05343 6.14673e-07 0)
(1.05343 -4.45138e-07 0)
(1.05343 -6.14874e-07 0)
(1.06026 4.48783e-07 0)
(1.06026 6.76835e-07 0)
(1.06026 -4.48546e-07 0)
(1.06026 -6.77041e-07 0)
(1.06707 4.56401e-07 0)
(1.06707 7.27518e-07 0)
(1.06706 -4.56159e-07 0)
(1.06707 -7.2773e-07 0)
(1.07384 4.69186e-07 0)
(1.07384 7.62739e-07 0)
(1.07384 -4.6894e-07 0)
(1.07384 -7.62955e-07 0)
(1.0806 4.88856e-07 0)
(1.08059 7.80305e-07 0)
(1.08059 -4.88605e-07 0)
(1.0806 -7.80529e-07 0)
(1.08732 5.16058e-07 0)
(1.08732 7.84195e-07 0)
(1.08732 -5.15803e-07 0)
(1.08732 -7.84422e-07 0)
(1.09402 5.41632e-07 0)
(1.09402 7.79106e-07 0)
(1.09402 -5.41371e-07 0)
(1.09402 -7.79336e-07 0)
(1.10069 5.61248e-07 0)
(1.10069 7.71371e-07 0)
(1.10069 -5.6098e-07 0)
(1.10069 -7.71608e-07 0)
(1.10733 5.55865e-07 0)
(1.10733 7.64391e-07 0)
(1.10733 -5.5559e-07 0)
(1.10733 -7.64633e-07 0)
(1.11394 5.15847e-07 0)
(1.11395 7.57402e-07 0)
(1.11394 -5.15564e-07 0)
(1.11394 -7.57649e-07 0)
(1.12052 4.35563e-07 0)
(1.12053 7.50239e-07 0)
(1.12052 -4.35274e-07 0)
(1.12052 -7.50494e-07 0)
(1.12707 3.17488e-07 0)
(1.12708 7.42476e-07 0)
(1.12707 -3.17197e-07 0)
(1.12707 -7.42741e-07 0)
(1.13358 1.80896e-07 0)
(1.13359 7.31069e-07 0)
(1.13358 -1.806e-07 0)
(1.13357 -7.31352e-07 0)
(1.14005 4.27241e-08 0)
(1.14006 7.18756e-07 0)
(1.14005 -4.24117e-08 0)
(1.14005 -7.19051e-07 0)
(1.14648 -6.60155e-08 0)
(1.14648 7.13171e-07 0)
(1.14648 6.63315e-08 0)
(1.14648 -7.13467e-07 0)
(1.15287 -1.30847e-07 0)
(1.15287 7.18555e-07 0)
(1.15287 1.31166e-07 0)
(1.15286 -7.18867e-07 0)
(1.1592 -1.47933e-07 0)
(1.1592 7.3958e-07 0)
(1.1592 1.48262e-07 0)
(1.1592 -7.399e-07 0)
(1.16548 -1.33283e-07 0)
(1.16548 7.59804e-07 0)
(1.16548 1.33623e-07 0)
(1.16548 -7.60124e-07 0)
(1.17171 -1.10461e-07 0)
(1.17171 7.54413e-07 0)
(1.17171 1.10802e-07 0)
(1.17171 -7.54718e-07 0)
(1.17786 -1.08739e-07 0)
(1.17787 6.93966e-07 0)
(1.17787 1.09074e-07 0)
(1.17786 -6.9426e-07 0)
(1.18395 -1.51103e-07 0)
(1.18395 5.6454e-07 0)
(1.18396 1.51445e-07 0)
(1.18395 -5.64853e-07 0)
(1.18996 -2.41294e-07 0)
(1.18996 3.91046e-07 0)
(1.18997 2.41652e-07 0)
(1.18996 -3.91397e-07 0)
(1.19587 -3.56336e-07 0)
(1.19588 2.22237e-07 0)
(1.19588 3.56671e-07 0)
(1.19587 -2.22577e-07 0)
(1.20169 -4.82846e-07 0)
(1.2017 1.08236e-07 0)
(1.2017 4.83177e-07 0)
(1.20169 -1.0856e-07 0)
(1.2074 -5.79552e-07 0)
(1.2074 8.11138e-08 0)
(1.2074 5.79888e-07 0)
(1.20739 -8.14395e-08 0)
(1.21297 -6.40434e-07 0)
(1.21297 1.07402e-07 0)
(1.21297 6.40781e-07 0)
(1.21297 -1.07752e-07 0)
(1.21839 -6.59148e-07 0)
(1.21839 1.603e-07 0)
(1.21838 6.59498e-07 0)
(1.21838 -1.60644e-07 0)
(1.22363 -6.36009e-07 0)
(1.22363 2.04985e-07 0)
(1.22363 6.36341e-07 0)
(1.22363 -2.05314e-07 0)
(1.22867 -5.79345e-07 0)
(1.22867 2.28069e-07 0)
(1.22867 5.79657e-07 0)
(1.22867 -2.28373e-07 0)
(1.23347 -5.01718e-07 0)
(1.23347 2.24906e-07 0)
(1.23347 5.02017e-07 0)
(1.23347 -2.25181e-07 0)
(1.238 -4.02347e-07 0)
(1.238 1.96356e-07 0)
(1.238 4.02578e-07 0)
(1.238 -1.96625e-07 0)
(1.2422 -2.98857e-07 0)
(1.2422 1.78478e-07 0)
(1.24221 2.99077e-07 0)
(1.24221 -1.78689e-07 0)
(1.24603 -1.82236e-07 0)
(1.24603 1.68562e-07 0)
(1.24603 1.82453e-07 0)
(1.24604 -1.68795e-07 0)
(1.24942 -6.11177e-08 0)
(1.24941 1.95236e-07 0)
(1.24942 6.13357e-08 0)
(1.24942 -1.95446e-07 0)
(1.25228 4.66203e-08 0)
(1.25227 2.06164e-07 0)
(1.25228 -4.64666e-08 0)
(1.25228 -2.06508e-07 0)
(1.25454 1.43466e-07 0)
(1.25453 2.53623e-07 0)
(1.25454 -1.43221e-07 0)
(1.25453 -2.53583e-07 0)
(1.2561 1.36189e-07 0)
(1.25609 1.96589e-07 0)
(1.2561 -1.36006e-07 0)
(1.25609 -1.96664e-07 0)
(1.2569 6.72183e-08 0)
(1.2569 8.51639e-08 0)
(1.25691 -6.71923e-08 0)
(1.2569 -8.51342e-08 0)
)
;

boundaryField
{
    inlet
    {
        type            cyclic;
    }
    outlet
    {
        type            cyclic;
    }
    fixedWalls-bottom
    {
        type            noSlip;
    }
    fixedWalls-top
    {
        type            symmetry;
    }
    frontAndBack
    {
        type            empty;
    }
}


// ************************************************************************* //
