/*--------------------------------*- C++ -*----------------------------------*\
  =========                 |
  \\      /  F ield         | OpenFOAM: The Open Source CFD Toolbox
   \\    /   O peration     | Website:  https://openfoam.org
    \\  /    A nd           | Version:  10
     \\/     M anipulation  |
\*---------------------------------------------------------------------------*/
FoamFile
{
    format      ascii;
    class       volScalarField;
    location    "2500";
    object      p;
}
// * * * * * * * * * * * * * * * * * * * * * * * * * * * * * * * * * * * * * //

dimensions      [0 2 -2 0 0 0 0];

internalField   nonuniform List<scalar> 
400
(
-7.54892e-17
4.52474e-13
-8.86042e-13
-1.34e-12
-8.28397e-16
4.53486e-13
-8.85529e-13
-1.34102e-12
-1.45163e-15
4.54734e-13
-8.84955e-13
-1.34226e-12
-1.98506e-15
4.5595e-13
-8.84403e-13
-1.34348e-12
-2.51974e-15
4.57132e-13
-8.83863e-13
-1.34466e-12
-3.06102e-15
4.58281e-13
-8.8332e-13
-1.34581e-12
-3.62612e-15
4.59373e-13
-8.8276e-13
-1.3469e-12
-4.20799e-15
4.60377e-13
-8.82177e-13
-1.34791e-12
-4.82791e-15
4.61264e-13
-8.81562e-13
-1.34879e-12
-5.48001e-15
4.62006e-13
-8.80909e-13
-1.34953e-12
-6.1843e-15
4.62578e-13
-8.80209e-13
-1.35011e-12
-6.93271e-15
4.62955e-13
-8.7946e-13
-1.35048e-12
-7.74257e-15
4.63113e-13
-8.78654e-13
-1.35064e-12
-8.60293e-15
4.63032e-13
-8.77793e-13
-1.35056e-12
-9.52813e-15
4.62694e-13
-8.76873e-13
-1.35022e-12
-1.05049e-14
4.62081e-13
-8.75896e-13
-1.34961e-12
-1.15443e-14
4.6118e-13
-8.74861e-13
-1.3487e-12
-1.26305e-14
4.5998e-13
-8.73775e-13
-1.3475e-12
-1.37722e-14
4.58473e-13
-8.72638e-13
-1.346e-12
-1.49519e-14
4.56653e-13
-8.71459e-13
-1.34417e-12
-1.61766e-14
4.5452e-13
-8.70239e-13
-1.34204e-12
-1.74287e-14
4.52073e-13
-8.68988e-13
-1.33959e-12
-1.87147e-14
4.49316e-13
-8.67707e-13
-1.33684e-12
-2.0018e-14
4.46252e-13
-8.66406e-13
-1.33377e-12
-2.13453e-14
4.42892e-13
-8.65084e-13
-1.33041e-12
-2.26819e-14
4.39243e-13
-8.63749e-13
-1.32676e-12
-2.40365e-14
4.35318e-13
-8.624e-13
-1.32283e-12
-2.53963e-14
4.31127e-13
-8.61044e-13
-1.31864e-12
-2.67723e-14
4.26684e-13
-8.59673e-13
-1.3142e-12
-2.81549e-14
4.22003e-13
-8.58294e-13
-1.30951e-12
-2.95574e-14
4.17098e-13
-8.56898e-13
-1.30461e-12
-3.09718e-14
4.11983e-13
-8.55487e-13
-1.29949e-12
-3.24142e-14
4.0667e-13
-8.54051e-13
-1.29418e-12
-3.38802e-14
4.01171e-13
-8.52589e-13
-1.28868e-12
-3.53869e-14
3.95499e-13
-8.51089e-13
-1.283e-12
-3.69311e-14
3.89662e-13
-8.49548e-13
-1.27717e-12
-3.85305e-14
3.83673e-13
-8.47956e-13
-1.27118e-12
-4.01825e-14
3.77538e-13
-8.46308e-13
-1.26504e-12
-4.19044e-14
3.71264e-13
-8.44592e-13
-1.25876e-12
-4.36945e-14
3.64857e-13
-8.42806e-13
-1.25236e-12
-4.55692e-14
3.58323e-13
-8.40937e-13
-1.24582e-12
-4.75255e-14
3.51662e-13
-8.38986e-13
-1.23916e-12
-4.95775e-14
3.44881e-13
-8.36941e-13
-1.23238e-12
-5.17204e-14
3.37982e-13
-8.34803e-13
-1.22547e-12
-5.39674e-14
3.30966e-13
-8.32562e-13
-1.21846e-12
-5.63119e-14
3.23837e-13
-8.30222e-13
-1.21133e-12
-5.87653e-14
3.16597e-13
-8.27775e-13
-1.20409e-12
-6.13199e-14
3.09247e-13
-8.25226e-13
-1.19673e-12
-6.39829e-14
3.01793e-13
-8.2257e-13
-1.18928e-12
-6.67461e-14
2.94235e-13
-8.19812e-13
-1.18172e-12
-6.96165e-14
2.86578e-13
-8.16948e-13
-1.17406e-12
-7.25856e-14
2.78825e-13
-8.13985e-13
-1.1663e-12
-7.56578e-14
2.70982e-13
-8.10919e-13
-1.15846e-12
-7.8823e-14
2.63052e-13
-8.07759e-13
-1.15053e-12
-8.20847e-14
2.55042e-13
-8.04504e-13
-1.14251e-12
-8.54341e-14
2.46956e-13
-8.0116e-13
-1.13442e-12
-8.88746e-14
2.38802e-13
-7.97726e-13
-1.12627e-12
-9.23959e-14
2.30585e-13
-7.94211e-13
-1.11805e-12
-9.59996e-14
2.22313e-13
-7.90614e-13
-1.10977e-12
-9.96773e-14
2.13994e-13
-7.86942e-13
-1.10145e-12
-1.0343e-13
2.05636e-13
-7.83196e-13
-1.09309e-12
-1.07248e-13
1.97245e-13
-7.79384e-13
-1.0847e-12
-1.11133e-13
1.88831e-13
-7.75506e-13
-1.07628e-12
-1.15076e-13
1.80402e-13
-7.71569e-13
-1.06785e-12
-1.19077e-13
1.71968e-13
-7.67574e-13
-1.05941e-12
-1.23126e-13
1.6354e-13
-7.63532e-13
-1.05098e-12
-1.27222e-13
1.55122e-13
-7.59443e-13
-1.04256e-12
-1.31356e-13
1.46727e-13
-7.55315e-13
-1.03416e-12
-1.35526e-13
1.38362e-13
-7.51151e-13
-1.02579e-12
-1.39722e-13
1.30041e-13
-7.46961e-13
-1.01747e-12
-1.43942e-13
1.21774e-13
-7.42747e-13
-1.0092e-12
-1.48176e-13
1.13572e-13
-7.3852e-13
-1.00099e-12
-1.52417e-13
1.05446e-13
-7.34284e-13
-9.9286e-13
-1.56658e-13
9.74061e-14
-7.30049e-13
-9.84816e-13
-1.60893e-13
8.94652e-14
-7.25821e-13
-9.76871e-13
-1.65111e-13
8.16359e-14
-7.2161e-13
-9.69035e-13
-1.69305e-13
7.39269e-14
-7.17423e-13
-9.61322e-13
-1.73463e-13
6.63547e-14
-7.1327e-13
-9.53746e-13
-1.77577e-13
5.89325e-14
-7.0916e-13
-9.46321e-13
-1.81639e-13
5.16745e-14
-7.05104e-13
-9.39058e-13
-1.85639e-13
4.45938e-14
-7.0111e-13
-9.31973e-13
-1.89565e-13
3.77057e-14
-6.97189e-13
-9.25081e-13
-1.93409e-13
3.10245e-14
-6.93351e-13
-9.18395e-13
-1.97156e-13
2.45665e-14
-6.89609e-13
-9.11933e-13
-2.00796e-13
1.83448e-14
-6.85973e-13
-9.05707e-13
-2.04318e-13
1.23763e-14
-6.82456e-13
-8.99735e-13
-2.07709e-13
6.67527e-15
-6.79069e-13
-8.94031e-13
-2.10957e-13
1.25955e-15
-6.75823e-13
-8.88612e-13
-2.14049e-13
-3.85594e-15
-6.72734e-13
-8.83494e-13
-2.16967e-13
-8.65283e-15
-6.69817e-13
-8.78696e-13
-2.19704e-13
-1.31141e-14
-6.67082e-13
-8.74232e-13
-2.2224e-13
-1.72216e-14
-6.64547e-13
-8.70123e-13
-2.24564e-13
-2.09575e-14
-6.62225e-13
-8.66385e-13
-2.26656e-13
-2.43037e-14
-6.60135e-13
-8.63037e-13
-2.28503e-13
-2.7241e-14
-6.5829e-13
-8.60098e-13
-2.30086e-13
-2.97491e-14
-6.56708e-13
-8.57589e-13
-2.31389e-13
-3.18092e-14
-6.55405e-13
-8.55528e-13
-2.32395e-13
-3.33956e-14
-6.544e-13
-8.5394e-13
-2.33084e-13
-3.44647e-14
-6.53712e-13
-8.5287e-13
-2.33435e-13
-3.49866e-14
-6.53361e-13
-8.52349e-13
)
;

boundaryField
{
    inlet
    {
        type            cyclic;
    }
    outlet
    {
        type            cyclic;
    }
    fixedWalls-bottom
    {
        type            zeroGradient;
    }
    fixedWalls-top
    {
        type            symmetry;
    }
    frontAndBack
    {
        type            empty;
    }
}


// ************************************************************************* //
