/*--------------------------------*- C++ -*----------------------------------*\
  =========                 |
  \\      /  F ield         | OpenFOAM: The Open Source CFD Toolbox
   \\    /   O peration     | Website:  https://openfoam.org
    \\  /    A nd           | Version:  10
     \\/     M anipulation  |
\*---------------------------------------------------------------------------*/
FoamFile
{
    format      ascii;
    class       volScalarField;
    location    "2500";
    object      k;
}
// * * * * * * * * * * * * * * * * * * * * * * * * * * * * * * * * * * * * * //

dimensions      [0 2 -2 0 0 0 0];

internalField   nonuniform List<scalar> 
400
(
6.72276e-10
6.72252e-10
6.72165e-10
6.72244e-10
2.0167e-08
2.01663e-08
2.01637e-08
2.0166e-08
1.42782e-07
1.42776e-07
1.42758e-07
1.42775e-07
5.18982e-07
5.18963e-07
5.18896e-07
5.18959e-07
1.34259e-06
1.34254e-06
1.34237e-06
1.34253e-06
2.84272e-06
2.84261e-06
2.84224e-06
2.8426e-06
5.28155e-06
5.28135e-06
5.28067e-06
5.28132e-06
8.95385e-06
8.95351e-06
8.95236e-06
8.95348e-06
1.41869e-05
1.41864e-05
1.41845e-05
1.41863e-05
2.13403e-05
2.13395e-05
2.13367e-05
2.13395e-05
3.08053e-05
3.08041e-05
3.08002e-05
3.08042e-05
4.30035e-05
4.30018e-05
4.29963e-05
4.3002e-05
5.83839e-05
5.83816e-05
5.8374e-05
5.8382e-05
7.74193e-05
7.74162e-05
7.74061e-05
7.74169e-05
0.0001006
0.000100596
0.000100583
0.000100597
0.000128426
0.00012842
0.000128403
0.000128422
0.000161395
0.000161388
0.000161367
0.000161391
0.000199992
0.000199983
0.000199957
0.000199989
0.000244672
0.00024466
0.000244629
0.000244668
0.000295839
0.000295825
0.000295786
0.000295836
0.000353832
0.000353814
0.000353768
0.00035383
0.000418898
0.000418875
0.00041882
0.000418897
0.000491176
0.000491148
0.000491083
0.000491177
0.000570676
0.000570642
0.000570567
0.000570679
0.000657267
0.000657227
0.00065714
0.000657273
0.000750664
0.000750618
0.000750518
0.000750674
0.000850429
0.000850377
0.000850262
0.000850443
0.000955973
0.000955916
0.000955784
0.000955991
0.00106657
0.00106651
0.00106636
0.00106659
0.00118137
0.0011813
0.00118113
0.00118139
0.00129943
0.00129935
0.00129916
0.00129945
0.00141974
0.00141965
0.00141944
0.00141976
0.00154125
0.00154115
0.0015409
0.00154125
0.00166288
0.00166277
0.0016625
0.00166287
0.00178363
0.0017835
0.00178319
0.00178359
0.00190262
0.00190246
0.00190213
0.00190256
0.00201931
0.00201913
0.00201877
0.00201923
0.00213314
0.00213294
0.00213256
0.00213304
0.00224358
0.00224336
0.00224295
0.00224346
0.00235015
0.0023499
0.00234948
0.00235001
0.00245241
0.00245215
0.00245171
0.00245225
0.00254999
0.0025497
0.00254926
0.00254981
0.00264256
0.00264225
0.0026418
0.00264237
0.00272983
0.00272951
0.00272905
0.00272964
0.00281158
0.00281125
0.00281078
0.00281139
0.00288762
0.00288728
0.00288681
0.00288744
0.00295781
0.00295748
0.00295701
0.00295764
0.00302206
0.00302175
0.00302127
0.00302191
0.00308028
0.00308004
0.00307953
0.00308018
0.00313243
0.0031323
0.00313176
0.00313241
0.00317858
0.00317853
0.00317796
0.00317861
0.00321873
0.00321873
0.00321811
0.00321878
0.00325286
0.0032529
0.00325225
0.00325291
0.00328097
0.00328105
0.00328036
0.00328102
0.00330307
0.00330316
0.00330245
0.00330311
0.00331909
0.00331919
0.00331848
0.00331913
0.00332912
0.00332921
0.0033285
0.00332915
0.00333345
0.00333353
0.00333283
0.00333348
0.00333235
0.00333241
0.00333172
0.00333238
0.00332608
0.00332609
0.00332544
0.00332613
0.00331488
0.00331484
0.00331423
0.00331502
0.00329902
0.00329892
0.00329835
0.00329914
0.00327875
0.00327855
0.00327803
0.00327875
0.00325411
0.00325398
0.00325348
0.00325406
0.00322552
0.00322538
0.00322492
0.00322542
0.00319316
0.00319297
0.00319254
0.003193
0.00315724
0.00315691
0.00315651
0.00315694
0.0031177
0.00311739
0.003117
0.00311738
0.00307467
0.00307454
0.00307415
0.00307448
0.0030285
0.00302847
0.00302811
0.00302838
0.00297929
0.00297932
0.00297898
0.00297922
0.00292714
0.0029272
0.00292687
0.00292709
0.00287213
0.0028722
0.0028719
0.0028721
0.00281435
0.00281442
0.00281413
0.00281432
0.00275387
0.00275393
0.00275365
0.00275383
0.00269079
0.00269084
0.00269056
0.00269075
0.00262548
0.00262551
0.00262522
0.00262542
0.00255823
0.00255822
0.0025579
0.00255814
0.00248895
0.00248886
0.00248852
0.00248879
0.0024175
0.00241728
0.00241687
0.00241716
0.00234363
0.00234348
0.00234291
0.00234321
0.00226748
0.00226742
0.00226674
0.00226705
0.00218931
0.00218936
0.0021886
0.00218894
0.00210944
0.00210957
0.00210882
0.0021092
0.00202823
0.00202851
0.00202779
0.00202831
0.00194636
0.00194669
0.00194603
0.00194658
0.00186434
0.00186467
0.00186409
0.00186462
0.00178278
0.0017831
0.00178264
0.00178312
0.0017024
0.00170263
0.00170237
0.00170271
0.00162396
0.00162397
0.00162407
0.00162412
0.00154823
0.00154814
0.00154826
0.00154827
0.00147605
0.00147592
0.00147606
0.00147603
0.00140831
0.00140819
0.00140832
0.00140828
0.00134595
0.00134584
0.00134594
0.0013459
0.00128988
0.00128979
0.00128986
0.00128981
0.00124098
0.00124089
0.00124094
0.00124086
0.00119986
0.00119977
0.00119983
0.00119972
0.00116726
0.00116718
0.00116724
0.00116711
0.00114455
0.00114447
0.00114454
0.00114439
0.00113281
0.00113273
0.0011328
0.00113266
)
;

boundaryField
{
    inlet
    {
        type            cyclic;
    }
    outlet
    {
        type            cyclic;
    }
    fixedWalls-bottom
    {
        type            kqRWallFunction;
        value           nonuniform List<scalar> 4(6.72276e-10 6.72252e-10 6.72165e-10 6.72244e-10);
    }
    fixedWalls-top
    {
        type            symmetry;
    }
    frontAndBack
    {
        type            empty;
    }
}


// ************************************************************************* //
