/*--------------------------------*- C++ -*----------------------------------*\
  =========                 |
  \\      /  F ield         | OpenFOAM: The Open Source CFD Toolbox
   \\    /   O peration     | Website:  https://openfoam.org
    \\  /    A nd           | Version:  10
     \\/     M anipulation  |
\*---------------------------------------------------------------------------*/
FoamFile
{
    format      ascii;
    class       volScalarField;
    location    "2500";
    object      omega;
}
// * * * * * * * * * * * * * * * * * * * * * * * * * * * * * * * * * * * * * //

dimensions      [0 0 -1 0 0 0 0];

internalField   nonuniform List<scalar> 
400
(
35011.6
35011.6
35011.6
35011.6
5987.54
5987.54
5987.54
5987.57
2014.15
2014.15
2014.15
2014.15
946.154
946.154
946.154
946.155
535.175
535.175
535.175
535.176
339.518
339.518
339.518
339.518
232.604
232.604
232.604
232.604
168.33
168.33
168.33
168.33
126.906
126.906
126.906
126.906
98.7631
98.7633
98.7632
98.7637
78.8405
78.8406
78.8405
78.8409
64.265
64.2651
64.265
64.2653
53.3117
53.3119
53.3118
53.312
44.8961
44.8962
44.8961
44.8962
38.309
38.3091
38.3089
38.309
33.0716
33.0717
33.0715
33.0716
28.8514
28.8514
28.8512
28.8512
25.4115
25.4115
25.4113
25.4111
22.5797
22.5797
22.5794
22.5792
20.2283
20.2283
20.228
20.2277
18.2612
18.2612
18.2608
18.2604
16.6045
16.6045
16.604
16.6035
15.2011
15.201
15.2006
15.2
14.006
14.0059
14.0054
14.0047
12.9834
12.9833
12.9827
12.9819
12.1046
12.1044
12.1038
12.1029
11.3462
11.346
11.3454
11.3444
10.6892
10.689
10.6884
10.6872
10.1179
10.1177
10.117
10.1157
9.61913
9.6189
9.61825
9.61686
9.18205
9.18182
9.18117
9.17968
8.79747
8.79724
8.79659
8.79502
8.45766
8.45743
8.45678
8.45514
8.15604
8.15582
8.15518
8.15347
7.88703
7.88682
7.88619
7.88444
7.64588
7.64568
7.64506
7.64327
7.4285
7.42831
7.42771
7.4259
7.23142
7.23124
7.23065
7.22883
7.05163
7.05145
7.05089
7.04908
6.88656
6.8864
6.88585
6.88405
6.734
6.73385
6.73333
6.73156
6.59206
6.59192
6.59141
6.58968
6.45909
6.45896
6.45848
6.45678
6.33369
6.33357
6.33311
6.33147
6.21465
6.21453
6.2141
6.21251
6.10092
6.10081
6.10041
6.09887
5.99161
5.99151
5.99113
5.98966
5.88595
5.88585
5.88551
5.88409
5.78327
5.78318
5.78286
5.7815
5.683
5.68291
5.68261
5.68132
5.58463
5.58457
5.58426
5.58304
5.48774
5.48772
5.48738
5.48624
5.39195
5.39195
5.39161
5.39053
5.29692
5.29693
5.29661
5.29557
5.20236
5.20238
5.20207
5.20108
5.108
5.10803
5.10773
5.1068
5.0136
5.01363
5.01335
5.01247
4.91893
4.91896
4.9187
4.91787
4.82378
4.82381
4.82357
4.82279
4.72796
4.72797
4.72777
4.72703
4.63129
4.63127
4.63112
4.63041
4.53362
4.53354
4.53346
4.53277
4.43482
4.43467
4.43464
4.43397
4.3347
4.33458
4.33454
4.33392
4.23321
4.23318
4.23311
4.23254
4.13043
4.13042
4.13032
4.12982
4.02631
4.02635
4.02616
4.02574
3.92087
3.92089
3.92071
3.92034
3.81413
3.81416
3.81399
3.81364
3.70614
3.70617
3.70602
3.70568
3.59691
3.59693
3.59682
3.59648
3.48644
3.48642
3.48635
3.48603
3.37465
3.37461
3.3745
3.37428
3.26143
3.26129
3.26128
3.26109
3.14662
3.14641
3.14644
3.1463
3.02999
3.0297
3.02978
3.02971
2.91129
2.91095
2.91109
2.91108
2.79045
2.79012
2.79024
2.79016
2.66771
2.66749
2.66736
2.667
2.54799
2.54793
2.54772
2.54727
2.43319
2.4332
2.43299
2.43242
2.32323
2.32321
2.3232
2.32234
2.21775
2.21779
2.21765
2.21676
2.11633
2.11653
2.11593
2.11529
2.01867
2.01888
2.01816
2.01751
1.92459
1.92481
1.92399
1.92331
1.83403
1.83426
1.83336
1.83263
1.74705
1.74731
1.74631
1.74555
1.66382
1.6641
1.663
1.66223
1.5846
1.58491
1.58371
1.58292
1.50975
1.51009
1.5088
1.508
1.43972
1.44007
1.4387
1.43789
1.37503
1.37534
1.37395
1.37313
1.31627
1.31638
1.3152
1.31429
1.2641
1.26352
1.26326
1.26195
1.21918
1.21844
1.21839
1.2168
1.18213
1.18134
1.18133
1.17962
1.15372
1.1529
1.15286
1.1511
1.13449
1.13355
1.13346
1.13166
1.12413
1.12286
1.1227
1.1209
)
;

boundaryField
{
    inlet
    {
        type            cyclic;
    }
    outlet
    {
        type            cyclic;
    }
    fixedWalls-bottom
    {
        beta1           0.075;
        blended         0;
        type            omegaWallFunction;
        value           uniform 35011.6;
    }
    fixedWalls-top
    {
        type            symmetry;
    }
    frontAndBack
    {
        type            empty;
    }
}


// ************************************************************************* //
