/*--------------------------------*- C++ -*----------------------------------*\
  =========                 |
  \\      /  F ield         | OpenFOAM: The Open Source CFD Toolbox
   \\    /   O peration     | Website:  https://openfoam.org
    \\  /    A nd           | Version:  10
     \\/     M anipulation  |
\*---------------------------------------------------------------------------*/
FoamFile
{
    format      ascii;
    class       surfaceScalarField;
    location    "2500";
    object      phi;
}
// * * * * * * * * * * * * * * * * * * * * * * * * * * * * * * * * * * * * * //

dimensions      [0 3 -1 0 0 0 0];

internalField   nonuniform List<scalar> 
696
(
7.25484e-05
-9.28919e-10
7.2549e-05
-5.7566e-10
7.2549e-05
-5.17345e-11
5.78712e-10
0.000221074
-7.43683e-10
0.000221075
-2.19923e-09
0.000221076
-2.34886e-10
2.20872e-09
0.000375174
-3.66919e-10
0.000375177
-4.79307e-09
0.000375177
-5.6969e-10
4.80836e-09
0.000534995
1.38597e-10
0.000534998
-8.29751e-09
0.000534999
-1.06611e-09
8.31924e-09
0.000700682
8.22899e-10
0.000700686
-1.26171e-08
0.000700687
-1.71392e-09
1.26443e-08
0.000872385
1.6398e-09
0.00087239
-1.76824e-08
0.000872391
-2.51936e-09
1.77163e-08
0.00105026
2.61204e-09
0.00105026
-2.33778e-08
0.00105026
-3.46072e-09
2.34171e-08
0.00123445
3.70164e-09
0.00123446
-2.96296e-08
0.00123446
-4.53958e-09
2.96757e-08
0.00142512
4.90993e-09
0.00142513
-3.63043e-08
0.00142513
-5.72181e-09
3.63559e-08
0.00162242
6.19927e-09
0.00162243
-4.33249e-08
0.00162243
-7.00228e-09
4.33836e-08
0.00182651
7.55385e-09
0.00182652
-5.0543e-08
0.00182652
-8.33456e-09
5.0607e-08
0.00203755
8.93284e-09
0.00203756
-5.78847e-08
0.00203756
-9.7068e-09
5.79561e-08
0.00225569
1.0306e-08
0.0022557
-6.51909e-08
0.0022557
-1.10607e-08
6.52676e-08
0.00248108
1.1629e-08
0.00248109
-7.2394e-08
0.00248109
-1.2379e-08
7.24784e-08
0.00271387
1.28627e-08
0.00271388
-7.93298e-08
0.00271388
-1.35954e-08
7.94194e-08
0.0029542
1.39546e-08
0.00295421
-8.59439e-08
0.00295421
-1.46844e-08
8.60415e-08
0.00320221
1.48618e-08
0.00320221
-9.20741e-08
0.00320221
-1.55761e-08
9.21769e-08
0.00345801
1.55264e-08
0.00345801
-9.76853e-08
0.00345801
-1.62396e-08
9.77963e-08
0.00372171
1.59104e-08
0.00372172
-1.02627e-07
0.00372172
-1.66089e-08
1.02743e-07
0.00399342
1.59395e-08
0.00399342
-1.06889e-07
0.00399342
-1.66385e-08
1.07013e-07
0.0042732
1.55803e-08
0.00427321
-1.10341e-07
0.0042732
-1.62656e-08
1.1047e-07
0.00456112
1.47395e-08
0.00456113
-1.13005e-07
0.00456112
-1.54266e-08
1.13142e-07
0.00485722
1.3387e-08
0.00485722
-1.14781e-07
0.00485722
-1.40609e-08
1.14924e-07
0.00516152
1.13758e-08
0.00516152
-1.15721e-07
0.00516152
-1.20527e-08
1.15872e-07
0.00547403
8.66417e-09
0.00547403
-1.15755e-07
0.00547402
-9.32832e-09
1.15911e-07
0.00579473
5.04058e-09
0.00579473
-1.14958e-07
0.00579472
-5.70876e-09
1.15123e-07
0.0061236
4.42429e-10
0.0061236
-1.13291e-07
0.00612359
-1.09792e-09
1.1346e-07
0.00646061
-5.45581e-09
0.00646061
-1.10834e-07
0.0064606
4.79542e-09
1.11012e-07
0.00680572
-1.27514e-08
0.00680572
-1.07573e-07
0.00680571
1.21035e-08
1.07755e-07
0.00715891
-2.18781e-08
0.0071589
-1.03585e-07
0.00715889
2.12246e-08
1.03776e-07
0.00752013
-3.29573e-08
0.00752012
-9.88647e-08
0.00752011
3.23164e-08
9.90597e-08
0.00788937
-4.65673e-08
0.00788936
-9.34487e-08
0.00788935
4.59202e-08
9.36525e-08
0.00826661
-6.28414e-08
0.00826661
-8.73099e-08
0.00826659
6.2207e-08
8.75174e-08
0.00865188
-8.24718e-08
0.00865187
-8.03867e-08
0.00865185
8.18308e-08
8.06031e-08
0.00904523
-1.0377e-07
0.00904523
-7.3194e-08
0.0090452
1.03142e-07
7.34137e-08
0.0094469
-1.25427e-07
0.00944689
-6.6254e-08
0.00944687
1.24792e-07
6.64825e-08
0.00985706
-1.46931e-07
0.00985706
-5.95657e-08
0.00985704
1.46309e-07
5.97974e-08
0.0102758
-1.6869e-07
0.0102758
-5.30442e-08
0.0102758
1.68062e-07
5.32847e-08
0.0107032
-1.90165e-07
0.0107031
-4.6724e-08
0.0107031
1.8955e-07
4.69672e-08
0.0111392
-2.11771e-07
0.0111392
-4.05445e-08
0.0111392
2.11149e-07
4.07966e-08
0.011584
-2.32805e-07
0.011584
-3.45699e-08
0.011584
2.32197e-07
3.48244e-08
0.0120377
-2.5371e-07
0.0120377
-2.87379e-08
0.0120377
2.53095e-07
2.90013e-08
0.0125003
-2.73933e-07
0.0125003
-2.30721e-08
0.0125002
2.73332e-07
2.33375e-08
0.0129719
-2.94231e-07
0.0129719
-1.74839e-08
0.0129718
2.93623e-07
1.77581e-08
0.0134525
-3.14127e-07
0.0134525
-1.19492e-08
0.0134525
3.13534e-07
1.2225e-08
0.0139424
-3.34172e-07
0.0139424
-6.30829e-09
0.0139424
3.33574e-07
6.59298e-09
0.0144415
-3.53663e-07
0.0144415
-3.446e-10
0.0144415
3.53079e-07
6.3018e-10
0.0149499
-3.7303e-07
0.0149499
6.18741e-09
0.0149499
3.72441e-07
-5.89291e-09
0.0154678
-3.91614e-07
0.0154678
1.35415e-08
0.0154678
3.91039e-07
-1.32466e-08
0.0159952
-4.09702e-07
0.0159952
2.18792e-08
0.0159951
4.09124e-07
-2.15754e-08
0.0165321
-4.26534e-07
0.0165321
3.13103e-08
0.0165321
4.2597e-07
-3.10069e-08
0.0170786
-4.41869e-07
0.0170786
4.16449e-08
0.0170786
4.41302e-07
-4.13328e-08
0.0176348
-4.54522e-07
0.0176348
5.25773e-08
0.0176348
4.53969e-07
-5.22663e-08
0.0182006
-4.63644e-07
0.0182006
6.35556e-08
0.0182006
4.63089e-07
-6.3236e-08
0.018776
-4.68126e-07
0.018776
7.40391e-08
0.018776
4.67585e-07
-7.37214e-08
0.0193612
-4.72072e-07
0.0193612
8.41976e-08
0.0193612
4.71529e-07
-8.38715e-08
0.0199565
-4.79487e-07
0.0199565
9.42627e-08
0.0199565
4.78957e-07
-9.39394e-08
0.0205622
-4.89556e-07
0.0205622
1.03374e-07
0.0205622
4.89025e-07
-1.03043e-07
0.0211783
-5.01005e-07
0.0211783
1.1092e-07
0.0211783
5.00488e-07
-1.10592e-07
0.021805
-5.13043e-07
0.0218049
1.16509e-07
0.0218049
5.12525e-07
-1.16174e-07
0.0224421
-5.24723e-07
0.0224421
1.19765e-07
0.0224421
5.24219e-07
-1.19434e-07
0.0230897
-5.35398e-07
0.0230897
1.21054e-07
0.0230897
5.34892e-07
-1.20717e-07
0.0237478
-5.44105e-07
0.0237478
1.2126e-07
0.0237478
5.43613e-07
-1.20927e-07
0.0244164
-5.50992e-07
0.0244164
1.20922e-07
0.0244164
5.50499e-07
-1.20583e-07
0.0250953
-5.55974e-07
0.0250953
1.19858e-07
0.0250953
5.55494e-07
-1.19525e-07
0.0257846
-5.60316e-07
0.0257846
1.17998e-07
0.0257846
5.59836e-07
-1.17661e-07
0.0264841
-5.64349e-07
0.0264841
1.15323e-07
0.0264841
5.63882e-07
-1.14992e-07
0.0271937
-5.68595e-07
0.0271937
1.11686e-07
0.0271937
5.68129e-07
-1.11351e-07
0.0279132
-5.718e-07
0.0279132
1.07204e-07
0.0279132
5.71346e-07
-1.06877e-07
0.0286424
-5.73821e-07
0.0286424
1.02165e-07
0.0286424
5.73367e-07
-1.01835e-07
0.0293812
-5.74404e-07
0.0293812
9.66326e-08
0.0293812
5.73965e-07
-9.63119e-08
0.0301293
-5.74522e-07
0.0301293
9.07034e-08
0.0301293
5.74083e-07
-9.03806e-08
0.0308865
-5.74366e-07
0.0308865
8.51608e-08
0.0308865
5.73942e-07
-8.48482e-08
0.0316523
-5.74562e-07
0.0316523
8.07582e-08
0.0316523
5.7414e-07
-8.04447e-08
0.0324266
-5.73687e-07
0.0324266
7.82146e-08
0.0324266
5.73281e-07
-7.79119e-08
0.0332088
-5.70758e-07
0.0332088
7.80738e-08
0.0332088
5.70354e-07
-7.77717e-08
0.0339986
-5.62071e-07
0.0339986
8.08546e-08
0.0339986
5.61684e-07
-8.05642e-08
0.0347955
-5.46608e-07
0.0347954
8.5823e-08
0.0347955
5.46224e-07
-8.55351e-08
0.0355988
-5.26669e-07
0.0355988
9.30743e-08
0.0355988
5.26303e-07
-9.27985e-08
0.0364082
-5.0722e-07
0.0364082
1.01682e-07
0.0364082
5.06859e-07
-1.01411e-07
0.0372232
-4.86756e-07
0.0372232
1.10587e-07
0.0372232
4.86415e-07
-1.10329e-07
0.0380433
-4.64113e-07
0.0380433
1.17138e-07
0.0380433
4.63778e-07
-1.16887e-07
0.0388682
-4.37788e-07
0.0388682
1.20856e-07
0.0388682
4.37473e-07
-1.20618e-07
0.0396973
-4.10768e-07
0.0396973
1.22965e-07
0.0396973
4.10463e-07
-1.22736e-07
0.0405301
-3.82563e-07
0.0405301
1.25925e-07
0.0405301
3.82279e-07
-1.2571e-07
0.0413659
-3.52938e-07
0.0413659
1.27767e-07
0.0413659
3.52666e-07
-1.27562e-07
0.042204
-3.21473e-07
0.042204
1.27539e-07
0.042204
3.21224e-07
-1.27349e-07
0.0430436
-2.89072e-07
0.0430436
1.25029e-07
0.0430437
2.88839e-07
-1.24851e-07
0.0438839
-2.56009e-07
0.0438839
1.21318e-07
0.0438839
2.55798e-07
-1.21154e-07
0.0447239
-2.23715e-07
0.0447239
1.15475e-07
0.0447239
2.23522e-07
-1.15325e-07
0.0455624
-1.93164e-07
0.0455625
1.07032e-07
0.0455625
1.92993e-07
-1.06896e-07
0.0463985
-1.65888e-07
0.0463985
9.59083e-08
0.0463985
1.65736e-07
-9.57864e-08
0.0472308
-1.42669e-07
0.0472308
8.4152e-08
0.0472308
1.42539e-07
-8.40454e-08
0.0480579
-1.23345e-07
0.0480579
7.26271e-08
0.0480579
1.23235e-07
-7.25359e-08
0.0488783
-1.03028e-07
0.0488783
6.01985e-08
0.0488784
1.0294e-07
-6.01236e-08
0.0496905
-7.91556e-08
0.0496905
4.57618e-08
0.0496906
7.90877e-08
-4.57033e-08
0.0504927
-5.42255e-08
0.0504927
3.03722e-08
0.0504927
5.41785e-08
-3.03308e-08
0.0512831
-3.12241e-08
0.0512831
1.63878e-08
0.0512831
3.11984e-08
-1.6364e-08
0.0520595
-1.29006e-08
0.0520595
7.06424e-09
0.0520596
1.28945e-08
-7.05811e-09
0.0528199
0.05282
0.05282
)
;

boundaryField
{
    inlet
    {
        type            cyclic;
        value           nonuniform List<scalar> 
100
(
-0.05282
-0.0520595
-0.0512831
-0.0504927
-0.0496905
-0.0488783
-0.0480579
-0.0472308
-0.0463985
-0.0455625
-0.0447239
-0.0438839
-0.0430437
-0.042204
-0.0413659
-0.0405301
-0.0396973
-0.0388682
-0.0380433
-0.0372232
-0.0364082
-0.0355988
-0.0347955
-0.0339986
-0.0332088
-0.0324266
-0.0316523
-0.0308865
-0.0301293
-0.0293812
-0.0286424
-0.0279132
-0.0271937
-0.0264841
-0.0257846
-0.0250953
-0.0244164
-0.0237478
-0.0230897
-0.0224421
-0.0218049
-0.0211783
-0.0205622
-0.0199565
-0.0193612
-0.018776
-0.0182006
-0.0176348
-0.0170786
-0.0165321
-0.0159952
-0.0154678
-0.0149499
-0.0144415
-0.0139424
-0.0134525
-0.0129718
-0.0125003
-0.0120377
-0.011584
-0.0111392
-0.0107031
-0.0102758
-0.00985704
-0.00944688
-0.00904521
-0.00865186
-0.0082666
-0.00788935
-0.00752012
-0.0071589
-0.00680572
-0.0064606
-0.00612359
-0.00579472
-0.00547402
-0.00516152
-0.00485722
-0.00456112
-0.0042732
-0.00399342
-0.00372171
-0.00345801
-0.00320221
-0.0029542
-0.00271387
-0.00248108
-0.00225569
-0.00203755
-0.00182651
-0.00162242
-0.00142512
-0.00123445
-0.00105026
-0.000872386
-0.000700683
-0.000534995
-0.000375175
-0.000221074
-7.25484e-05
)
;
    }
    outlet
    {
        type            cyclic;
        value           nonuniform List<scalar> 
100
(
0.05282
0.0520595
0.0512831
0.0504927
0.0496905
0.0488783
0.0480579
0.0472308
0.0463985
0.0455625
0.0447239
0.0438839
0.0430437
0.042204
0.0413659
0.0405301
0.0396973
0.0388682
0.0380433
0.0372232
0.0364082
0.0355988
0.0347955
0.0339986
0.0332088
0.0324266
0.0316523
0.0308865
0.0301293
0.0293812
0.0286424
0.0279132
0.0271937
0.0264841
0.0257846
0.0250953
0.0244164
0.0237478
0.0230897
0.0224421
0.0218049
0.0211783
0.0205622
0.0199565
0.0193612
0.018776
0.0182006
0.0176348
0.0170786
0.0165321
0.0159952
0.0154678
0.0149499
0.0144415
0.0139424
0.0134525
0.0129718
0.0125003
0.0120377
0.011584
0.0111392
0.0107031
0.0102758
0.00985704
0.00944688
0.00904521
0.00865186
0.0082666
0.00788935
0.00752012
0.0071589
0.00680572
0.0064606
0.00612359
0.00579472
0.00547402
0.00516152
0.00485722
0.00456112
0.0042732
0.00399342
0.00372171
0.00345801
0.00320221
0.0029542
0.00271387
0.00248108
0.00225569
0.00203755
0.00182651
0.00162242
0.00142512
0.00123445
0.00105026
0.000872386
0.000700683
0.000534995
0.000375175
0.000221074
7.25484e-05
)
;
    }
    fixedWalls-bottom
    {
        type            calculated;
        value           uniform 0;
    }
    fixedWalls-top
    {
        type            symmetry;
        value           uniform 0;
    }
    frontAndBack
    {
        type            empty;
        value           nonuniform List<scalar> 0();
    }
}


// ************************************************************************* //
