/*--------------------------------*- C++ -*----------------------------------*\
  =========                 |
  \\      /  F ield         | OpenFOAM: The Open Source CFD Toolbox
   \\    /   O peration     | Website:  https://openfoam.org
    \\  /    A nd           | Version:  10
     \\/     M anipulation  |
\*---------------------------------------------------------------------------*/
FoamFile
{
    format      ascii;
    class       volSymmTensorField;
    location    "2500";
    object      R;
}
// * * * * * * * * * * * * * * * * * * * * * * * * * * * * * * * * * * * * * //

dimensions      [0 2 -2 0 0 0 0];

internalField   nonuniform List<symmTensor> 
400
(
(4.48184e-10 -6.52921e-14 -0 4.48184e-10 -0 4.48184e-10)
(4.48168e-10 -6.529e-14 -0 4.48168e-10 -0 4.48168e-10)
(4.4811e-10 -6.52822e-14 -0 4.4811e-10 -0 4.4811e-10)
(4.48163e-10 -6.52894e-14 -0 4.48163e-10 -0 4.48163e-10)
(1.34447e-08 -1.14e-11 -0 1.34447e-08 -0 1.34447e-08)
(1.34442e-08 -1.13997e-11 -0 1.34442e-08 -0 1.34442e-08)
(1.34425e-08 -1.13983e-11 -0 1.34425e-08 -0 1.34425e-08)
(1.3444e-08 -1.13995e-11 -0 1.3444e-08 -0 1.3444e-08)
(9.51878e-08 -2.38802e-10 -0 9.51878e-08 -0 9.51878e-08)
(9.51843e-08 -2.38794e-10 -0 9.51843e-08 -0 9.51843e-08)
(9.5172e-08 -2.38765e-10 -0 9.5172e-08 -0 9.5172e-08)
(9.51835e-08 -2.38792e-10 -0 9.51835e-08 -0 9.51835e-08)
(3.45988e-07 -1.83885e-09 -0 3.45988e-07 -0 3.45988e-07)
(3.45975e-07 -1.83878e-09 -0 3.45975e-07 -0 3.45975e-07)
(3.4593e-07 -1.83856e-09 -0 3.4593e-07 -0 3.4593e-07)
(3.45973e-07 -1.83877e-09 -0 3.45973e-07 -0 3.45973e-07)
(8.95062e-07 -8.36863e-09 -0 8.95062e-07 -0 8.95062e-07)
(8.95029e-07 -8.36834e-09 -0 8.95029e-07 -0 8.95029e-07)
(8.94913e-07 -8.36731e-09 -0 8.94913e-07 -0 8.94913e-07)
(8.95023e-07 -8.36828e-09 -0 8.95023e-07 -0 8.95023e-07)
(1.89515e-06 -2.77894e-08 -0 1.89515e-06 -0 1.89515e-06)
(1.89508e-06 -2.77884e-08 -0 1.89508e-06 -0 1.89508e-06)
(1.89483e-06 -2.7785e-08 -0 1.89483e-06 -0 1.89483e-06)
(1.89506e-06 -2.77883e-08 -0 1.89506e-06 -0 1.89506e-06)
(3.52103e-06 -7.4973e-08 -0 3.52103e-06 -0 3.52103e-06)
(3.5209e-06 -7.49702e-08 -0 3.5209e-06 -0 3.5209e-06)
(3.52044e-06 -7.49609e-08 -0 3.52044e-06 -0 3.52044e-06)
(3.52088e-06 -7.49698e-08 -0 3.52088e-06 -0 3.52088e-06)
(5.96923e-06 -1.74706e-07 -0 5.96923e-06 -0 5.96923e-06)
(5.96901e-06 -1.747e-07 -0 5.96901e-06 -0 5.96901e-06)
(5.96824e-06 -1.74678e-07 -0 5.96824e-06 -0 5.96824e-06)
(5.96899e-06 -1.74699e-07 -0 5.96899e-06 -0 5.96899e-06)
(9.45793e-06 -3.65181e-07 -0 9.45793e-06 -0 9.45793e-06)
(9.45758e-06 -3.65167e-07 -0 9.45758e-06 -0 9.45758e-06)
(9.45635e-06 -3.65121e-07 -0 9.45635e-06 -0 9.45635e-06)
(9.45755e-06 -3.65165e-07 -0 9.45755e-06 -0 9.45755e-06)
(1.42269e-05 -7.01921e-07 -0 1.42269e-05 -0 1.42269e-05)
(1.42263e-05 -7.01893e-07 -0 1.42263e-05 -0 1.42263e-05)
(1.42245e-05 -7.01804e-07 -0 1.42245e-05 -0 1.42245e-05)
(1.42263e-05 -7.0189e-07 -0 1.42263e-05 -0 1.42263e-05)
(2.05369e-05 -1.26204e-06 -0 2.05369e-05 -0 2.05369e-05)
(2.05361e-05 -1.26199e-06 -0 2.05361e-05 -0 2.05361e-05)
(2.05334e-05 -1.26183e-06 -0 2.05334e-05 -0 2.05334e-05)
(2.05361e-05 -1.26198e-06 -0 2.05361e-05 -0 2.05361e-05)
(2.8669e-05 -2.14865e-06 -0 2.8669e-05 -0 2.8669e-05)
(2.86679e-05 -2.14855e-06 -0 2.86679e-05 -0 2.86679e-05)
(2.86642e-05 -2.14828e-06 -0 2.86642e-05 -0 2.86642e-05)
(2.8668e-05 -2.14855e-06 -0 2.8668e-05 -0 2.8668e-05)
(3.89226e-05 -3.4951e-06 -0 3.89226e-05 -0 3.89226e-05)
(3.89211e-05 -3.49495e-06 -0 3.89211e-05 -0 3.89211e-05)
(3.8916e-05 -3.49451e-06 -0 3.8916e-05 -0 3.8916e-05)
(3.89213e-05 -3.49496e-06 -0 3.89213e-05 -0 3.89213e-05)
(5.16129e-05 -5.46876e-06 -0 5.16129e-05 -0 5.16129e-05)
(5.16108e-05 -5.46851e-06 -0 5.16108e-05 -0 5.16108e-05)
(5.16041e-05 -5.46781e-06 -0 5.16041e-05 -0 5.16041e-05)
(5.16113e-05 -5.46855e-06 -0 5.16113e-05 -0 5.16113e-05)
(6.70666e-05 -8.27354e-06 -0 6.70666e-05 -0 6.70666e-05)
(6.70638e-05 -8.27315e-06 -0 6.70638e-05 -0 6.70638e-05)
(6.70551e-05 -8.2721e-06 -0 6.70552e-05 -0 6.70552e-05)
(6.70647e-05 -8.27326e-06 -0 6.70647e-05 -0 6.70647e-05)
(8.56171e-05 -1.21509e-05 -0 8.56171e-05 -0 8.56171e-05)
(8.56134e-05 -1.21503e-05 -0 8.56134e-05 -0 8.56134e-05)
(8.56023e-05 -1.21488e-05 -0 8.56023e-05 -0 8.56023e-05)
(8.56149e-05 -1.21506e-05 -0 8.56149e-05 -0 8.56149e-05)
(0.000107597 -1.73783e-05 -0 0.000107597 -0 0.000107597)
(0.000107592 -1.73774e-05 -0 0.000107592 -0 0.000107592)
(0.000107578 -1.73753e-05 -0 0.000107578 -0 0.000107578)
(0.000107594 -1.73779e-05 -0 0.000107594 -0 0.000107594)
(0.000133328 -2.42643e-05 -0 0.000133328 -0 0.000133328)
(0.000133322 -2.42631e-05 -0 0.000133322 -0 0.000133322)
(0.000133305 -2.42601e-05 -0 0.000133305 -0 0.000133305)
(0.000133326 -2.4264e-05 -0 0.000133326 -0 0.000133326)
(0.000163115 -3.31404e-05 -0 0.000163115 -0 0.000163115)
(0.000163107 -3.31387e-05 -0 0.000163107 -0 0.000163107)
(0.000163086 -3.31346e-05 -0 0.000163086 -0 0.000163086)
(0.000163112 -3.31404e-05 -0 0.000163112 -0 0.000163112)
(0.000197226 -4.43479e-05 -0 0.000197226 -0 0.000197226)
(0.000197216 -4.43455e-05 -0 0.000197217 -0 0.000197216)
(0.000197191 -4.43403e-05 -0 0.000197191 -0 0.000197191)
(0.000197224 -4.43485e-05 -0 0.000197224 -0 0.000197224)
(0.000235888 -5.82217e-05 -0 0.000235888 -0 0.000235888)
(0.000235876 -5.82185e-05 -0 0.000235876 -0 0.000235876)
(0.000235845 -5.82119e-05 -0 0.000235845 -0 0.000235845)
(0.000235886 -5.82234e-05 -0 0.000235886 -0 0.000235886)
(0.000279265 -7.50698e-05 -0 0.000279265 -0 0.000279265)
(0.00027925 -7.50656e-05 -0 0.00027925 -0 0.00027925)
(0.000279214 -7.50574e-05 -0 0.000279214 -0 0.000279214)
(0.000279265 -7.50734e-05 -0 0.000279265 -0 0.000279265)
(0.000327451 -9.51512e-05 -0 0.000327451 -0 0.000327451)
(0.000327432 -9.51459e-05 -0 0.000327432 -0 0.000327432)
(0.000327389 -9.51359e-05 -0 0.000327389 -0 0.000327389)
(0.000327451 -9.51578e-05 -0 0.000327451 -0 0.000327451)
(0.000380451 -0.000118653 -0 0.000380451 -0 0.000380451)
(0.000380428 -0.000118647 -0 0.000380428 -0 0.000380428)
(0.000380378 -0.000118635 -0 0.000380378 -0 0.000380378)
(0.000380453 -0.000118664 -0 0.000380453 -0 0.000380453)
(0.000438178 -0.000145672 -0 0.000438178 -0 0.000438178)
(0.000438151 -0.000145664 -0 0.000438151 -0 0.000438151)
(0.000438093 -0.00014565 -0 0.000438093 -0 0.000438093)
(0.000438182 -0.000145689 -0 0.000438182 -0 0.000438182)
(0.000500442 -0.000176194 -0 0.000500443 -0 0.000500442)
(0.000500412 -0.000176185 -0 0.000500412 -0 0.000500412)
(0.000500345 -0.000176169 -0 0.000500345 -0 0.000500345)
(0.000500449 -0.000176219 -0 0.000500449 -0 0.000500449)
(0.000566953 -0.00021009 -0 0.000566953 -0 0.000566953)
(0.000566918 -0.00021008 -0 0.000566918 -0 0.000566918)
(0.000566842 -0.000210062 -0 0.000566841 -0 0.000566842)
(0.000566962 -0.000210125 -0 0.000566962 -0 0.000566962)
(0.000637315 -0.000247113 -0 0.000637316 -0 0.000637316)
(0.000637277 -0.000247102 -0 0.000637277 -0 0.000637277)
(0.00063719 -0.000247081 -0 0.000637189 -0 0.00063719)
(0.000637327 -0.000247161 -0 0.000637327 -0 0.000637327)
(0.000711046 -0.000286904 -0 0.000711047 -0 0.000711046)
(0.000711004 -0.000286894 -0 0.000711004 -0 0.000711004)
(0.000710904 -0.00028687 -0 0.000710904 -0 0.000710904)
(0.00071106 -0.000286967 -0 0.00071106 -0 0.00071106)
(0.000787579 -0.000329012 -0 0.00078758 -0 0.00078758)
(0.000787534 -0.000329001 -0 0.000787533 -0 0.000787533)
(0.00078742 -0.000328974 -0 0.000787419 -0 0.00078742)
(0.000787594 -0.000329092 -0 0.000787595 -0 0.000787594)
(0.000866286 -0.000372911 -0 0.000866287 -0 0.000866287)
(0.000866236 -0.0003729 -0 0.000866236 -0 0.000866236)
(0.000866107 -0.000372868 -0 0.000866106 -0 0.000866107)
(0.000866301 -0.000373008 -0 0.000866301 -0 0.000866301)
(0.000946492 -0.000418029 -0 0.000946494 -0 0.000946493)
(0.000946437 -0.000418016 -0 0.000946436 -0 0.000946436)
(0.000946291 -0.000417979 -0 0.00094629 -0 0.00094629)
(0.000946504 -0.000418144 -0 0.000946504 -0 0.000946504)
(0.0010275 -0.000463773 -0 0.0010275 -0 0.0010275)
(0.00102743 -0.000463758 -0 0.00102743 -0 0.00102743)
(0.00102727 -0.000463716 -0 0.00102727 -0 0.00102727)
(0.0010275 -0.000463905 -0 0.0010275 -0 0.0010275)
(0.00110859 -0.000509602 -0 0.00110859 -0 0.00110859)
(0.00110852 -0.000509583 -0 0.00110852 -0 0.00110852)
(0.00110833 -0.000509536 -0 0.00110833 -0 0.00110833)
(0.00110858 -0.000509752 -0 0.00110858 -0 0.00110858)
(0.00118908 -0.000552924 -0 0.00118908 -0 0.00118908)
(0.001189 -0.000552884 -0 0.001189 -0 0.001189)
(0.00118879 -0.000552789 -0 0.00118879 -0 0.00118879)
(0.00118906 -0.000552914 -0 0.00118906 -0 0.00118906)
(0.00126841 -0.000589812 -0 0.00126841 -0 0.00126841)
(0.00126831 -0.000589763 -0 0.00126831 -0 0.00126831)
(0.00126809 -0.00058966 -0 0.00126808 -0 0.00126809)
(0.00126837 -0.000589794 -0 0.00126837 -0 0.00126837)
(0.00134621 -0.000625987 -0 0.00134621 -0 0.00134621)
(0.00134609 -0.000625931 -0 0.00134609 -0 0.00134609)
(0.00134585 -0.000625819 -0 0.00134585 -0 0.00134585)
(0.00134616 -0.000625963 -0 0.00134616 -0 0.00134616)
(0.00142209 -0.000661274 -0 0.0014221 -0 0.00142209)
(0.00142196 -0.000661211 -0 0.00142196 -0 0.00142196)
(0.00142171 -0.000661092 -0 0.0014217 -0 0.0014217)
(0.00142203 -0.000661244 -0 0.00142203 -0 0.00142203)
(0.00149572 -0.00069551 -0 0.00149572 -0 0.00149572)
(0.00149557 -0.00069544 -0 0.00149557 -0 0.00149557)
(0.0014953 -0.000695315 -0 0.0014953 -0 0.0014953)
(0.00149564 -0.000695474 -0 0.00149564 -0 0.00149564)
(0.00156676 -0.000728546 -0 0.00156677 -0 0.00156677)
(0.0015666 -0.00072847 -0 0.0015666 -0 0.0015666)
(0.00156632 -0.000728339 -0 0.00156632 -0 0.00156632)
(0.00156667 -0.000728503 -0 0.00156667 -0 0.00156667)
(0.00163494 -0.000760248 -0 0.00163494 -0 0.00163494)
(0.00163476 -0.000760165 -0 0.00163476 -0 0.00163476)
(0.00163447 -0.00076003 -0 0.00163447 -0 0.00163447)
(0.00163483 -0.000760198 -0 0.00163483 -0 0.00163483)
(0.00169999 -0.000790499 -0 0.0017 -0 0.0017)
(0.0016998 -0.00079041 -0 0.0016998 -0 0.0016998)
(0.00169951 -0.000790271 -0 0.0016995 -0 0.0016995)
(0.00169988 -0.000790443 -0 0.00169988 -0 0.00169988)
(0.00176171 -0.000819198 -0 0.00176171 -0 0.00176171)
(0.0017615 -0.000819102 -0 0.0017615 -0 0.0017615)
(0.0017612 -0.000818961 -0 0.0017612 -0 0.0017612)
(0.00176158 -0.000819139 -0 0.00176158 -0 0.00176158)
(0.00181989 -0.000846259 -0 0.00181989 -0 0.00181989)
(0.00181967 -0.000846159 -0 0.00181967 -0 0.00181967)
(0.00181937 -0.000846016 -0 0.00181936 -0 0.00181936)
(0.00181976 -0.000846201 -0 0.00181976 -0 0.00181976)
(0.00187438 -0.00087162 -0 0.00187439 -0 0.00187439)
(0.00187416 -0.000871516 -0 0.00187416 -0 0.00187416)
(0.00187385 -0.000871372 -0 0.00187385 -0 0.00187385)
(0.00187426 -0.000871562 -0 0.00187426 -0 0.00187426)
(0.00192508 -0.000895237 -0 0.00192508 -0 0.00192508)
(0.00192486 -0.000895132 -0 0.00192485 -0 0.00192485)
(0.00192454 -0.000894986 -0 0.00192454 -0 0.00192454)
(0.00192496 -0.00089518 -0 0.00192496 -0 0.00192496)
(0.00197187 -0.000917091 -0 0.00197188 -0 0.00197188)
(0.00197166 -0.000916989 -0 0.00197166 -0 0.00197166)
(0.00197134 -0.000916841 -0 0.00197134 -0 0.00197134)
(0.00197176 -0.000917037 -0 0.00197176 -0 0.00197176)
(0.0020147 -0.000937192 -0 0.00201471 -0 0.0020147)
(0.0020145 -0.000937098 -0 0.0020145 -0 0.0020145)
(0.00201418 -0.000936947 -0 0.00201418 -0 0.00201418)
(0.0020146 -0.000937144 -0 0.00201461 -0 0.0020146)
(0.00205352 -0.000955581 -0 0.00205352 -0 0.00205352)
(0.00205336 -0.000955505 -0 0.00205336 -0 0.00205336)
(0.00205302 -0.000955348 -0 0.00205302 -0 0.00205302)
(0.00205345 -0.000955545 -0 0.00205345 -0 0.00205345)
(0.00208828 -0.000972331 -0 0.00208829 -0 0.00208829)
(0.0020882 -0.000972291 -0 0.0020882 -0 0.0020882)
(0.00208784 -0.000972123 -0 0.00208784 -0 0.00208784)
(0.00208827 -0.000972321 -0 0.00208828 -0 0.00208828)
(0.00211905 -0.000987584 -0 0.00211906 -0 0.00211906)
(0.00211902 -0.000987567 -0 0.00211902 -0 0.00211902)
(0.00211864 -0.000987387 -0 0.00211864 -0 0.00211864)
(0.00211907 -0.000987585 -0 0.00211908 -0 0.00211908)
(0.00214582 -0.00100148 -0 0.00214582 -0 0.00214582)
(0.00214582 -0.00100148 -0 0.00214582 -0 0.00214582)
(0.00214541 -0.00100128 -0 0.00214541 -0 0.00214541)
(0.00214585 -0.00100148 -0 0.00214585 -0 0.00214585)
(0.00216857 -0.00101418 -0 0.00216857 -0 0.00216857)
(0.0021686 -0.00101419 -0 0.0021686 -0 0.0021686)
(0.00216817 -0.00101398 -0 0.00216816 -0 0.00216816)
(0.00216861 -0.00101418 -0 0.00216861 -0 0.00216861)
(0.00218731 -0.00102586 -0 0.00218732 -0 0.00218732)
(0.00218737 -0.00102588 -0 0.00218736 -0 0.00218737)
(0.00218691 -0.00102566 -0 0.00218691 -0 0.00218691)
(0.00218735 -0.00102585 -0 0.00218735 -0 0.00218735)
(0.00220204 -0.00103669 -0 0.00220204 -0 0.00220204)
(0.00220211 -0.00103672 -0 0.0022021 -0 0.0022021)
(0.00220164 -0.00103649 -0 0.00220163 -0 0.00220164)
(0.00220207 -0.00103667 -0 0.00220207 -0 0.00220207)
(0.00221273 -0.00104383 -0 0.00221273 -0 0.00221273)
(0.0022128 -0.00104386 -0 0.00221279 -0 0.00221279)
(0.00221232 -0.0010437 -0 0.00221232 -0 0.00221232)
(0.00221275 -0.00104408 -0 0.00221275 -0 0.00221275)
(0.00221941 -0.00104343 -0 0.00221941 -0 0.00221941)
(0.00221948 -0.00104346 -0 0.00221947 -0 0.00221948)
(0.002219 -0.00104329 -0 0.002219 -0 0.002219)
(0.00221943 -0.00104366 -0 0.00221944 -0 0.00221943)
(0.0022223 -0.00104172 -0 0.0022223 -0 0.0022223)
(0.00222236 -0.00104174 -0 0.00222236 -0 0.00222236)
(0.00222189 -0.00104158 -0 0.00222188 -0 0.00222189)
(0.00222232 -0.00104195 -0 0.00222232 -0 0.00222232)
(0.00222157 -0.00103845 -0 0.00222157 -0 0.00222157)
(0.00222161 -0.00103847 -0 0.0022216 -0 0.00222161)
(0.00222115 -0.00103831 -0 0.00222114 -0 0.00222115)
(0.00222159 -0.00103868 -0 0.00222159 -0 0.00222159)
(0.00221738 -0.00103374 -0 0.00221739 -0 0.00221739)
(0.00221739 -0.00103375 -0 0.00221739 -0 0.00221739)
(0.00221696 -0.0010336 -0 0.00221696 -0 0.00221696)
(0.00221742 -0.00103397 -0 0.00221742 -0 0.00221742)
(0.00220992 -0.00102769 -0 0.00220992 -0 0.00220992)
(0.0022099 -0.00102769 -0 0.00220989 -0 0.00220989)
(0.00220949 -0.00102754 -0 0.00220948 -0 0.00220949)
(0.00221001 -0.00102794 -0 0.00221001 -0 0.00221001)
(0.00219934 -0.0010204 -0 0.00219935 -0 0.00219934)
(0.00219928 -0.00102039 -0 0.00219928 -0 0.00219928)
(0.0021989 -0.00102024 -0 0.0021989 -0 0.0021989)
(0.00219943 -0.00102064 -0 0.00219943 -0 0.00219943)
(0.00218583 -0.00101195 -0 0.00218583 -0 0.00218583)
(0.0021857 -0.00101192 -0 0.0021857 -0 0.0021857)
(0.00218535 -0.00101177 -0 0.00218535 -0 0.00218535)
(0.00218584 -0.00101215 -0 0.00218584 -0 0.00218584)
(0.00216941 -0.00100239 -0 0.00216941 -0 0.00216941)
(0.00216932 -0.00100237 -0 0.00216932 -0 0.00216932)
(0.00216899 -0.00100223 -0 0.00216899 -0 0.00216899)
(0.00216937 -0.00100256 -0 0.00216937 -0 0.00216937)
(0.00215035 -0.000991837 -0 0.00215035 -0 0.00215035)
(0.00215026 -0.000991802 -0 0.00215026 -0 0.00215026)
(0.00214995 -0.00099168 -0 0.00214995 -0 0.00214995)
(0.00215028 -0.00099197 -0 0.00215028 -0 0.00215028)
(0.00212878 -0.000980331 -0 0.00212878 -0 0.00212878)
(0.00212865 -0.000980277 -0 0.00212865 -0 0.00212865)
(0.00212836 -0.000980169 -0 0.00212836 -0 0.00212836)
(0.00212867 -0.000980431 -0 0.00212867 -0 0.00212867)
(0.00210482 -0.00096793 -0 0.00210483 -0 0.00210483)
(0.00210461 -0.000967828 -0 0.00210461 -0 0.00210461)
(0.00210434 -0.000967745 -0 0.00210434 -0 0.00210434)
(0.00210462 -0.000967979 -0 0.00210462 -0 0.00210462)
(0.00207846 -0.000954607 -0 0.00207846 -0 0.00207846)
(0.00207826 -0.000954514 -0 0.00207826 -0 0.00207826)
(0.002078 -0.000954435 -0 0.002078 -0 0.002078)
(0.00207825 -0.000954647 -0 0.00207825 -0 0.00207825)
(0.00204978 -0.000940391 -0 0.00204978 -0 0.00204978)
(0.00204969 -0.00094035 -0 0.00204969 -0 0.00204969)
(0.00204944 -0.000940272 -0 0.00204943 -0 0.00204943)
(0.00204965 -0.000940464 -0 0.00204965 -0 0.00204965)
(0.002019 -0.000925371 -0 0.002019 -0 0.002019)
(0.00201898 -0.000925356 -0 0.00201898 -0 0.00201898)
(0.00201874 -0.000925281 -0 0.00201874 -0 0.00201874)
(0.00201892 -0.000925457 -0 0.00201892 -0 0.00201892)
(0.0019862 -0.000909557 -0 0.0019862 -0 0.0019862)
(0.00198621 -0.000909564 -0 0.00198621 -0 0.00198621)
(0.00198598 -0.000909485 -0 0.00198598 -0 0.00198598)
(0.00198615 -0.000909648 -0 0.00198614 -0 0.00198615)
(0.00195143 -0.000892974 -0 0.00195143 -0 0.00195143)
(0.00195146 -0.000893 -0 0.00195147 -0 0.00195146)
(0.00195125 -0.000892914 -0 0.00195125 -0 0.00195125)
(0.00195139 -0.000893066 -0 0.00195139 -0 0.00195139)
(0.00191476 -0.000875652 -0 0.00191476 -0 0.00191476)
(0.0019148 -0.000875685 -0 0.0019148 -0 0.0019148)
(0.0019146 -0.000875615 -0 0.0019146 -0 0.0019146)
(0.00191473 -0.000875739 -0 0.00191473 -0 0.00191473)
(0.00187623 -0.000857631 -0 0.00187623 -0 0.00187623)
(0.00187628 -0.000857688 -0 0.00187628 -0 0.00187628)
(0.00187609 -0.000857595 -0 0.00187609 -0 0.00187609)
(0.00187621 -0.000857712 -0 0.00187621 -0 0.00187621)
(0.00183591 -0.000838954 -0 0.00183591 -0 0.00183591)
(0.00183595 -0.000839022 -0 0.00183595 -0 0.00183595)
(0.00183576 -0.000838922 -0 0.00183576 -0 0.00183576)
(0.00183589 -0.000839029 -0 0.00183589 -0 0.00183589)
(0.00179386 -0.000819684 -0 0.00179386 -0 0.00179386)
(0.00179389 -0.000819765 -0 0.00179389 -0 0.00179389)
(0.0017937 -0.000819654 -0 0.0017937 -0 0.0017937)
(0.00179383 -0.000819752 -0 0.00179383 -0 0.00179383)
(0.00175032 -0.000799961 -0 0.00175032 -0 0.00175032)
(0.00175034 -0.000800046 -0 0.00175034 -0 0.00175034)
(0.00175014 -0.000799923 -0 0.00175015 -0 0.00175014)
(0.00175028 -0.000800014 -0 0.00175028 -0 0.00175028)
(0.00170549 -0.000779876 -0 0.00170548 -0 0.00170549)
(0.00170548 -0.000779947 -0 0.00170548 -0 0.00170548)
(0.00170527 -0.000779823 -0 0.00170527 -0 0.00170527)
(0.00170542 -0.000779936 -0 0.00170542 -0 0.00170542)
(0.0016593 -0.000759454 -0 0.0016593 -0 0.0016593)
(0.00165924 -0.000759482 -0 0.00165924 -0 0.00165924)
(0.00165901 -0.000759411 -0 0.00165901 -0 0.00165901)
(0.00165919 -0.000759604 -0 0.00165919 -0 0.00165919)
(0.00161167 -0.000737504 -0 0.00161167 -0 0.00161167)
(0.00161152 -0.000737452 -0 0.00161152 -0 0.00161152)
(0.00161125 -0.000737385 -0 0.00161125 -0 0.00161125)
(0.00161144 -0.000737604 -0 0.00161144 -0 0.00161144)
(0.00156242 -0.000713532 -0 0.00156242 -0 0.00156242)
(0.00156232 -0.000713486 -0 0.00156232 -0 0.00156232)
(0.00156194 -0.000713379 -0 0.00156194 -0 0.00156194)
(0.00156214 -0.000713637 -0 0.00156214 -0 0.00156214)
(0.00151165 -0.000687588 -0 0.00151165 -0 0.00151165)
(0.00151162 -0.000687575 -0 0.00151162 -0 0.00151162)
(0.00151116 -0.000687388 -0 0.00151117 -0 0.00151116)
(0.00151137 -0.000687728 -0 0.00151137 -0 0.00151137)
(0.00145954 -0.000659772 -0 0.00145953 -0 0.00145954)
(0.00145957 -0.000659775 -0 0.00145957 -0 0.00145957)
(0.00145906 -0.000659602 -0 0.00145907 -0 0.00145907)
(0.00145929 -0.000659959 -0 0.00145929 -0 0.00145929)
(0.0014063 -0.000630223 -0 0.00140629 -0 0.00140629)
(0.00140638 -0.000630207 -0 0.00140638 -0 0.00140638)
(0.00140587 -0.00063016 -0 0.00140588 -0 0.00140588)
(0.00140614 -0.000630468 -0 0.00140614 -0 0.00140614)
(0.00135216 -0.000599062 -0 0.00135215 -0 0.00135215)
(0.00135234 -0.00059909 -0 0.00135234 -0 0.00135234)
(0.00135186 -0.000599087 -0 0.00135187 -0 0.00135186)
(0.00135221 -0.000599441 -0 0.00135221 -0 0.00135221)
(0.00129758 -0.000566483 -0 0.00129757 -0 0.00129758)
(0.00129779 -0.000566522 -0 0.00129779 -0 0.00129779)
(0.00129735 -0.000566569 -0 0.00129736 -0 0.00129735)
(0.00129772 -0.000566936 -0 0.00129772 -0 0.00129772)
(0.0012429 -0.000532602 -0 0.00124289 -0 0.0012429)
(0.00124312 -0.000532637 -0 0.00124312 -0 0.00124312)
(0.00124273 -0.000532735 -0 0.00124273 -0 0.00124273)
(0.00124308 -0.000533097 -0 0.00124308 -0 0.00124308)
(0.00118853 -0.000497535 -0 0.00118852 -0 0.00118852)
(0.00118873 -0.000497554 -0 0.00118873 -0 0.00118873)
(0.00118842 -0.000497712 -0 0.00118843 -0 0.00118842)
(0.00118874 -0.000498059 -0 0.00118874 -0 0.00118874)
(0.00113494 -0.000461397 -0 0.00113493 -0 0.00113493)
(0.00113509 -0.000461385 -0 0.00113509 -0 0.00113509)
(0.00113491 -0.000461619 -0 0.00113491 -0 0.00113491)
(0.00113514 -0.000461924 -0 0.00113514 -0 0.00113514)
(0.00108264 -0.000424296 -0 0.00108263 -0 0.00108264)
(0.00108265 -0.000424227 -0 0.00108265 -0 0.00108265)
(0.00108271 -0.00042457 -0 0.00108271 -0 0.00108271)
(0.00108275 -0.000424789 -0 0.00108274 -0 0.00108274)
(0.00103216 -0.00038633 -0 0.00103215 -0 0.00103216)
(0.00103209 -0.000386239 -0 0.00103209 -0 0.00103209)
(0.00103217 -0.000386589 -0 0.00103217 -0 0.00103217)
(0.00103218 -0.000386795 -0 0.00103218 -0 0.00103218)
(0.000984039 -0.000347595 -0 0.000984032 -0 0.000984035)
(0.000983945 -0.000347501 -0 0.000983947 -0 0.000983946)
(0.000984033 -0.000347848 -0 0.00098404 -0 0.000984037)
(0.000984023 -0.000348038 -0 0.00098402 -0 0.000984021)
(0.000938876 -0.000308177 -0 0.00093887 -0 0.000938873)
(0.00093879 -0.000308098 -0 0.000938793 -0 0.000938791)
(0.000938874 -0.000308421 -0 0.00093888 -0 0.000938877)
(0.000938852 -0.000308597 -0 0.000938849 -0 0.000938851)
(0.000897299 -0.000268152 -0 0.000897295 -0 0.000897297)
(0.000897226 -0.000268114 -0 0.000897229 -0 0.000897228)
(0.00089729 -0.00026837 -0 0.000897295 -0 0.000897293)
(0.000897267 -0.000268545 -0 0.000897264 -0 0.000897266)
(0.000859924 -0.000227581 -0 0.000859919 -0 0.000859921)
(0.000859861 -0.00022766 -0 0.000859864 -0 0.000859863)
(0.000859903 -0.000227733 -0 0.000859908 -0 0.000859905)
(0.000859872 -0.00022795 -0 0.000859869 -0 0.00085987)
(0.000827323 -0.000186511 -0 0.000827318 -0 0.00082732)
(0.00082726 -0.000186599 -0 0.000827264 -0 0.000827262)
(0.000827292 -0.00018663 -0 0.000827297 -0 0.000827295)
(0.000827244 -0.000186852 -0 0.00082724 -0 0.000827242)
(0.000799909 -0.000144964 -0 0.000799904 -0 0.000799906)
(0.000799846 -0.000145042 -0 0.00079985 -0 0.000799848)
(0.000799884 -0.000145057 -0 0.000799889 -0 0.000799886)
(0.000799815 -0.000145245 -0 0.000799811 -0 0.000799813)
(0.000778178 -0.000102948 -0 0.000778173 -0 0.000778175)
(0.000778116 -0.000103006 -0 0.00077812 -0 0.000778118)
(0.00077816 -0.000103013 -0 0.000778165 -0 0.000778162)
(0.000778075 -0.00010315 -0 0.000778071 -0 0.000778073)
(0.000763034 -6.0502e-05 -0 0.00076303 -0 0.000763032)
(0.000762976 -6.05412e-05 -0 0.000762979 -0 0.000762978)
(0.000763022 -6.05434e-05 -0 0.000763026 -0 0.000763024)
(0.000762928 -6.06222e-05 -0 0.000762925 -0 0.000762926)
(0.000755206 -1.95964e-05 -0 0.000755203 -0 0.000755205)
(0.000755154 -1.96156e-05 -0 0.000755156 -0 0.000755155)
(0.000755196 -1.96163e-05 -0 0.000755199 -0 0.000755198)
(0.00075511 -1.96404e-05 -0 0.000755108 -0 0.000755109)
)
;

boundaryField
{
    inlet
    {
        type            cyclic;
    }
    outlet
    {
        type            cyclic;
    }
    fixedWalls-bottom
    {
        type            kqRWallFunction;
        value           nonuniform List<symmTensor> 4((4.48184e-10 -0 -0 4.48184e-10 -0 4.48184e-10) (4.48168e-10 -0 -0 4.48168e-10 -0 4.48168e-10) (4.4811e-10 -0 -0 4.4811e-10 -0 4.4811e-10) (4.48163e-10 -0 -0 4.48163e-10 -0 4.48163e-10));
    }
    fixedWalls-top
    {
        type            symmetry;
    }
    frontAndBack
    {
        type            empty;
    }
}


// ************************************************************************* //
