/*--------------------------------*- C++ -*----------------------------------*\
  =========                 |
  \\      /  F ield         | OpenFOAM: The Open Source CFD Toolbox
   \\    /   O peration     | Website:  https://openfoam.org
    \\  /    A nd           | Version:  10
     \\/     M anipulation  |
\*---------------------------------------------------------------------------*/
FoamFile
{
    format      ascii;
    class       volScalarField;
    location    "2500";
    object      nut;
}
// * * * * * * * * * * * * * * * * * * * * * * * * * * * * * * * * * * * * * //

dimensions      [0 2 -1 0 0 0 0];

internalField   nonuniform List<scalar> 
400
(
5.66356e-21
5.66356e-21
5.66356e-21
5.66356e-21
3.45365e-20
3.45365e-20
3.45365e-20
3.45365e-20
1.0473e-19
1.0473e-19
1.0473e-19
1.0473e-19
2.25191e-19
2.25191e-19
2.25191e-19
2.25191e-19
3.99582e-19
3.99584e-19
3.99587e-19
3.99586e-19
6.28214e-19
6.28226e-19
6.28237e-19
6.28234e-19
9.09746e-19
9.09781e-19
9.09802e-19
9.09797e-19
1.24368e-18
1.24376e-18
1.24378e-18
1.24378e-18
1.63087e-18
1.631e-18
1.63103e-18
1.63101e-18
2.07319e-18
2.07337e-18
2.0734e-18
2.07338e-18
2.57329e-18
2.57353e-18
2.57357e-18
2.57354e-18
3.13363e-18
3.13394e-18
3.13398e-18
3.13394e-18
3.75489e-18
3.75528e-18
3.75535e-18
3.75531e-18
4.43571e-18
4.43622e-18
4.43635e-18
4.4363e-18
5.17316e-18
5.17386e-18
5.17409e-18
5.17402e-18
5.96304e-18
5.964e-18
5.96441e-18
5.96431e-18
6.85076e-18
6.84835e-18
6.84953e-18
6.85303e-18
8.30693e-18
8.3033e-18
8.30538e-18
8.31181e-18
1.02267e-17
1.02215e-17
1.02249e-17
1.02352e-17
1.27024e-17
1.26954e-17
1.27007e-17
1.2716e-17
1.5834e-17
1.5825e-17
1.5833e-17
1.58546e-17
1.97278e-17
1.97165e-17
1.97283e-17
1.97582e-17
2.44949e-17
2.44811e-17
2.44981e-17
2.45386e-17
3.02502e-17
3.02335e-17
3.02577e-17
3.03114e-17
3.71112e-17
3.7091e-17
3.71245e-17
3.71951e-17
4.51969e-17
4.51725e-17
4.52176e-17
4.53098e-17
5.4628e-17
5.4598e-17
5.46569e-17
5.47771e-17
6.55259e-17
6.54883e-17
6.55632e-17
6.57195e-17
7.80134e-17
7.79651e-17
7.80573e-17
7.82606e-17
9.22144e-17
9.21518e-17
9.22617e-17
9.25253e-17
1.08255e-16
1.08174e-16
1.083e-16
1.0864e-16
1.26263e-16
1.2616e-16
1.263e-16
1.26734e-16
1.46369e-16
1.46243e-16
1.46389e-16
1.46939e-16
1.68707e-16
1.68555e-16
1.68701e-16
1.69388e-16
1.93415e-16
1.93236e-16
1.93376e-16
1.94221e-16
2.20634e-16
2.20428e-16
2.20556e-16
2.21578e-16
2.50513e-16
2.50279e-16
2.50395e-16
2.51608e-16
2.83203e-16
2.82942e-16
2.83042e-16
2.84464e-16
3.18863e-16
3.18575e-16
3.18657e-16
3.20306e-16
3.57658e-16
3.57345e-16
3.57404e-16
3.59301e-16
3.9976e-16
3.99422e-16
3.99456e-16
4.01623e-16
4.45348e-16
4.44988e-16
4.44992e-16
4.47455e-16
4.94613e-16
4.9423e-16
4.94202e-16
4.96988e-16
5.47753e-16
5.47348e-16
5.47284e-16
5.50423e-16
6.04978e-16
6.04552e-16
6.04451e-16
6.07975e-16
6.66517e-16
6.66067e-16
6.65931e-16
6.69875e-16
7.32617e-16
7.32137e-16
7.31977e-16
7.36376e-16
8.03543e-16
8.03025e-16
8.02862e-16
8.07751e-16
8.79567e-16
8.7899e-16
8.78863e-16
8.84278e-16
9.60916e-16
9.60245e-16
9.60217e-16
9.66197e-16
1.04773e-15
1.04692e-15
1.04706e-15
1.05366e-15
1.14001e-15
1.13904e-15
1.13941e-15
1.14671e-15
1.23761e-15
1.23652e-15
1.23713e-15
1.2452e-15
1.34017e-15
1.33909e-15
1.33985e-15
1.34877e-15
1.44722e-15
1.44605e-15
1.44696e-15
1.45682e-15
1.55786e-15
1.55657e-15
1.55763e-15
1.56847e-15
1.67085e-15
1.66968e-15
1.67086e-15
1.6827e-15
1.78535e-15
1.78417e-15
1.7855e-15
1.79843e-15
1.90017e-15
1.89894e-15
1.90044e-15
1.91448e-15
2.01412e-15
2.01281e-15
2.01451e-15
2.02964e-15
2.12597e-15
2.12459e-15
2.12652e-15
2.14267e-15
2.23449e-15
2.23306e-15
2.23525e-15
2.25232e-15
2.33847e-15
2.33702e-15
2.33947e-15
2.35733e-15
2.4367e-15
2.43519e-15
2.43796e-15
2.45647e-15
2.528e-15
2.52631e-15
2.5294e-15
2.54853e-15
2.61116e-15
2.60909e-15
2.61249e-15
2.63233e-15
2.68451e-15
2.68263e-15
2.68604e-15
2.7067e-15
2.74797e-15
2.74558e-15
2.74916e-15
2.77076e-15
2.80054e-15
2.79716e-15
2.80116e-15
2.82347e-15
2.84048e-15
2.83692e-15
2.84111e-15
2.86386e-15
2.86719e-15
2.86431e-15
2.86817e-15
2.89133e-15
2.88012e-15
2.87922e-15
2.88165e-15
2.90538e-15
2.87902e-15
2.88249e-15
2.88088e-15
2.90576e-15
2.86484e-15
2.86887e-15
2.86722e-15
2.8923e-15
2.83736e-15
2.84057e-15
2.83997e-15
2.86508e-15
2.79651e-15
2.79719e-15
2.79945e-15
2.82448e-15
2.74207e-15
2.74563e-15
2.74327e-15
2.77117e-15
2.67212e-15
2.6803e-15
2.67516e-15
2.70531e-15
2.59356e-15
2.60212e-15
2.59751e-15
2.62692e-15
2.50467e-15
2.51348e-15
2.50924e-15
2.53782e-15
2.40662e-15
2.41552e-15
2.41154e-15
2.43925e-15
2.3007e-15
2.30955e-15
2.30575e-15
2.33257e-15
2.18833e-15
2.19705e-15
2.19336e-15
2.21923e-15
2.07102e-15
2.07961e-15
2.0759e-15
2.1008e-15
1.95039e-15
1.95879e-15
1.95499e-15
1.97893e-15
1.82821e-15
1.83614e-15
1.83232e-15
1.85526e-15
1.70618e-15
1.71323e-15
1.70962e-15
1.73142e-15
1.58604e-15
1.59154e-15
1.58887e-15
1.60892e-15
1.46947e-15
1.47243e-15
1.47275e-15
1.48904e-15
1.35917e-15
1.35624e-15
1.36336e-15
1.37315e-15
1.25178e-15
1.24891e-15
1.25631e-15
1.26406e-15
1.15109e-15
1.14846e-15
1.15544e-15
1.16239e-15
1.05825e-15
1.05598e-15
1.06224e-15
1.06904e-15
9.746e-16
9.72497e-16
9.7762e-16
9.85032e-16
9.01046e-16
8.99502e-16
9.02839e-16
9.11111e-16
8.38106e-16
8.40046e-16
8.40324e-16
8.47726e-16
7.87314e-16
7.89721e-16
7.89703e-16
7.96522e-16
7.49115e-16
7.51439e-16
7.51819e-16
7.58002e-16
7.24104e-16
7.25817e-16
7.2748e-16
7.3288e-16
7.1278e-16
7.12677e-16
7.17089e-16
7.22068e-16
)
;

boundaryField
{
    inlet
    {
        type            cyclic;
    }
    outlet
    {
        type            cyclic;
    }
    fixedWalls-bottom
    {
        type            nutkWallFunction;
        Cmu             0.09;
        kappa           0.41;
        E               9.8;
        value           uniform 0;
    }
    fixedWalls-top
    {
        type            symmetry;
    }
    frontAndBack
    {
        type            empty;
    }
}


// ************************************************************************* //
