/*--------------------------------*- C++ -*----------------------------------*\
  =========                 |
  \\      /  F ield         | OpenFOAM: The Open Source CFD Toolbox
   \\    /   O peration     | Website:  https://openfoam.org
    \\  /    A nd           | Version:  10
     \\/     M anipulation  |
\*---------------------------------------------------------------------------*/
FoamFile
{
    format      ascii;
    class       volScalarField;
    location    "2500";
    object      p;
}
// * * * * * * * * * * * * * * * * * * * * * * * * * * * * * * * * * * * * * //

dimensions      [0 2 -2 0 0 0 0];

internalField   nonuniform List<scalar> 
400
(
-2.37772e-17
6.96268e-13
-1.01181e-13
-7.98069e-13
-7.3736e-16
6.96786e-13
-1.00567e-13
-7.98587e-13
-1.47344e-15
6.97441e-13
-9.98481e-14
-7.99242e-13
-2.14937e-15
6.9808e-13
-9.91537e-14
-7.99881e-13
-2.82228e-15
6.98698e-13
-9.84767e-14
-8.00499e-13
-3.48807e-15
6.99293e-13
-9.78072e-14
-8.01093e-13
-4.15373e-15
6.9984e-13
-9.71427e-14
-8.01641e-13
-4.80322e-15
7.0032e-13
-9.64889e-14
-8.02121e-13
-5.44645e-15
7.00707e-13
-9.58458e-14
-8.02508e-13
-6.069e-15
7.00983e-13
-9.52191e-14
-8.02784e-13
-6.67978e-15
7.01125e-13
-9.46086e-14
-8.02926e-13
-7.26354e-15
7.01119e-13
-9.40211e-14
-8.02919e-13
-7.828e-15
7.00943e-13
-9.34571e-14
-8.02743e-13
-8.3569e-15
7.00587e-13
-9.29249e-14
-8.02386e-13
-8.85733e-15
7.00034e-13
-9.24248e-14
-8.01833e-13
-9.31255e-15
6.99278e-13
-9.19666e-14
-8.01076e-13
-9.72886e-15
6.98304e-13
-9.15507e-14
-8.00102e-13
-1.00897e-14
6.97113e-13
-9.11873e-14
-7.9891e-13
-1.04017e-14
6.95696e-13
-9.08759e-14
-7.97493e-13
-1.06488e-14
6.94057e-13
-9.06265e-14
-7.95853e-13
-1.08383e-14
6.9219e-13
-9.04379e-14
-7.93986e-13
-1.09554e-14
6.90106e-13
-9.0319e-14
-7.91901e-13
-1.10091e-14
6.87801e-13
-9.02666e-14
-7.89596e-13
-1.09866e-14
6.85289e-13
-9.02879e-14
-7.87083e-13
-1.08989e-14
6.82569e-13
-9.0377e-14
-7.84362e-13
-1.07357e-14
6.79656e-13
-9.05394e-14
-7.81448e-13
-1.05101e-14
6.76552e-13
-9.07665e-14
-7.78343e-13
-1.02143e-14
6.73273e-13
-9.10619e-14
-7.75064e-13
-9.86368e-15
6.6982e-13
-9.14141e-14
-7.71609e-13
-9.45277e-15
6.6621e-13
-9.18251e-14
-7.67998e-13
-8.99868e-15
6.62442e-13
-9.2281e-14
-7.6423e-13
-8.4974e-15
6.58534e-13
-9.27824e-14
-7.60321e-13
-7.96777e-15
6.54483e-13
-9.33137e-14
-7.5627e-13
-7.40597e-15
6.50305e-13
-9.38753e-14
-7.5209e-13
-6.83136e-15
6.45995e-13
-9.44516e-14
-7.47779e-13
-6.24087e-15
6.41567e-13
-9.50427e-14
-7.4335e-13
-5.65409e-15
6.37014e-13
-9.5632e-14
-7.38796e-13
-5.06575e-15
6.32349e-13
-9.62208e-14
-7.34129e-13
-4.4946e-15
6.27563e-13
-9.6794e-14
-7.29342e-13
-3.93516e-15
6.22668e-13
-9.73538e-14
-7.24446e-13
-3.40449e-15
6.17655e-13
-9.78863e-14
-7.19433e-13
-2.89579e-15
6.12534e-13
-9.83954e-14
-7.1431e-13
-2.42499e-15
6.07297e-13
-9.88683e-14
-7.09071e-13
-1.98348e-15
6.01953e-13
-9.93103e-14
-7.03725e-13
-1.58578e-15
5.96491e-13
-9.97103e-14
-6.98262e-13
-1.22155e-15
5.90926e-13
-1.00075e-13
-6.92696e-13
-9.04016e-16
5.85246e-13
-1.00395e-13
-6.87015e-13
-6.22671e-16
5.79465e-13
-1.00677e-13
-6.81231e-13
-3.88663e-16
5.73572e-13
-1.00913e-13
-6.75337e-13
-1.91587e-16
5.67582e-13
-1.01112e-13
-6.69345e-13
-4.25505e-17
5.61488e-13
-1.01264e-13
-6.6325e-13
6.93888e-17
5.55302e-13
-1.01377e-13
-6.57062e-13
1.34577e-16
5.4902e-13
-1.01445e-13
-6.50778e-13
1.63439e-16
5.42655e-13
-1.01475e-13
-6.44411e-13
1.46296e-16
5.36201e-13
-1.0146e-13
-6.37956e-13
9.25513e-17
5.29674e-13
-1.01408e-13
-6.31427e-13
-7.15781e-18
5.23069e-13
-1.01311e-13
-6.2482e-13
-1.42956e-16
5.16401e-13
-1.01177e-13
-6.1815e-13
-3.23319e-16
5.09666e-13
-1.00998e-13
-6.11415e-13
-5.3958e-16
5.02882e-13
-1.00784e-13
-6.04629e-13
-7.99556e-16
4.96046e-13
-1.00526e-13
-5.97791e-13
-1.09319e-15
4.89169e-13
-1.00234e-13
-5.90914e-13
-1.43004e-15
4.82254e-13
-9.98994e-14
-5.83996e-13
-1.80181e-15
4.75314e-13
-9.95299e-14
-5.77054e-13
-2.2153e-15
4.68352e-13
-9.91193e-14
-5.70089e-13
-2.66149e-15
4.6138e-13
-9.86745e-14
-5.63116e-13
-3.14759e-15
4.544e-13
-9.81906e-14
-5.56134e-13
-3.66447e-15
4.47428e-13
-9.76757e-14
-5.49159e-13
-4.21777e-15
4.40465e-13
-9.71245e-14
-5.42194e-13
-4.79846e-15
4.33526e-13
-9.65444e-14
-5.35254e-13
-5.41265e-15
4.26616e-13
-9.59314e-14
-5.28343e-13
-6.05286e-15
4.19748e-13
-9.52929e-14
-5.21473e-13
-6.72265e-15
4.12928e-13
-9.46245e-14
-5.14651e-13
-7.41432e-15
4.06169e-13
-9.3934e-14
-5.0789e-13
-8.1313e-15
3.99479e-13
-9.3218e-14
-5.01198e-13
-8.86722e-15
3.92871e-13
-9.24832e-14
-4.94588e-13
-9.62286e-15
3.86351e-13
-9.17288e-14
-4.88067e-13
-1.03902e-14
3.79937e-13
-9.09622e-14
-4.81652e-13
-1.11731e-14
3.73637e-13
-9.01797e-14
-4.7535e-13
-1.19651e-14
3.67467e-13
-8.93885e-14
-4.69178e-13
-1.2765e-14
3.61434e-13
-8.85888e-14
-4.63144e-13
-1.35669e-14
3.55555e-13
-8.77874e-14
-4.57264e-13
-1.43707e-14
3.49841e-13
-8.69844e-14
-4.51548e-13
-1.51691e-14
3.44308e-13
-8.61865e-14
-4.46013e-13
-1.59617e-14
3.38968e-13
-8.53944e-14
-4.40672e-13
-1.67413e-14
3.33835e-13
-8.46132e-14
-4.3554e-13
-1.75067e-14
3.28923e-13
-8.38471e-14
-4.30629e-13
-1.82503e-14
3.24248e-13
-8.31022e-14
-4.25954e-13
-1.89698e-14
3.19826e-13
-8.23815e-14
-4.21532e-13
-1.96584e-14
3.15673e-13
-8.16918e-14
-4.1738e-13
-2.03133e-14
3.11804e-13
-8.10358e-14
-4.1351e-13
-2.09286e-14
3.08234e-13
-8.04198e-14
-4.09941e-13
-2.14992e-14
3.04983e-13
-7.98479e-14
-4.0669e-13
-2.20194e-14
3.0207e-13
-7.93276e-14
-4.03776e-13
-2.24836e-14
2.9951e-13
-7.88634e-14
-4.01216e-13
-2.28857e-14
2.97321e-13
-7.84615e-14
-3.99026e-13
-2.32179e-14
2.95522e-13
-7.81281e-14
-3.97227e-13
-2.34766e-14
2.94134e-13
-7.78694e-14
-3.95839e-13
-2.36584e-14
2.93194e-13
-7.76872e-14
-3.94899e-13
-2.37585e-14
2.9273e-13
-7.75868e-14
-3.94435e-13
)
;

boundaryField
{
    inlet
    {
        type            cyclic;
    }
    outlet
    {
        type            cyclic;
    }
    fixedWalls-bottom
    {
        type            zeroGradient;
    }
    fixedWalls-top
    {
        type            symmetry;
    }
    frontAndBack
    {
        type            empty;
    }
}


// ************************************************************************* //
