/*--------------------------------*- C++ -*----------------------------------*\
  =========                 |
  \\      /  F ield         | OpenFOAM: The Open Source CFD Toolbox
   \\    /   O peration     | Website:  https://openfoam.org
    \\  /    A nd           | Version:  10
     \\/     M anipulation  |
\*---------------------------------------------------------------------------*/
FoamFile
{
    format      ascii;
    class       volScalarField;
    location    "242";
    object      k;
}
// * * * * * * * * * * * * * * * * * * * * * * * * * * * * * * * * * * * * * //

dimensions      [0 2 -2 0 0 0 0];

internalField   nonuniform List<scalar> 
200
(
4.9585e-08
4.95739e-08
4.95212e-08
4.95188e-08
1.49805e-06
1.49771e-06
1.49612e-06
1.49605e-06
1.08395e-05
1.08371e-05
1.08255e-05
1.0825e-05
4.03581e-05
4.03488e-05
4.03059e-05
4.03041e-05
0.000106714
0.000106688
0.000106574
0.00010657
0.000229664
0.000229602
0.000229359
0.000229353
0.000429453
0.000429326
0.000428877
0.000428873
0.000721802
0.000721568
0.000720832
0.000720842
0.00111114
0.00111077
0.00110968
0.00110973
0.00158547
0.00158495
0.00158352
0.00158364
0.00211709
0.00211646
0.00211476
0.00211503
0.00267
0.00266934
0.00266747
0.002668
0.00320986
0.0032092
0.00320729
0.00320827
0.00371367
0.00371288
0.00371098
0.00371267
0.00417124
0.00417019
0.00416836
0.00417097
0.00457552
0.00457384
0.00457226
0.00457583
0.00492345
0.00492078
0.00491969
0.00492423
0.00521516
0.00521125
0.0052108
0.00521629
0.00545288
0.00544771
0.00544778
0.0054543
0.00564005
0.00563379
0.00563409
0.0056418
0.00578057
0.00577342
0.00577386
0.00578276
0.00587814
0.00587034
0.00587117
0.00588108
0.00593542
0.00592752
0.00592816
0.0059391
0.00595803
0.00595087
0.00595107
0.00596194
0.00594896
0.00594273
0.00594231
0.0059532
0.00591046
0.00590597
0.00590404
0.00591515
0.00584471
0.00584145
0.00583857
0.0058499
0.00575347
0.00575105
0.00574773
0.00575935
0.00563838
0.00563726
0.0056332
0.00564521
0.005502
0.00550131
0.0054973
0.00550908
0.00534581
0.00534522
0.00534134
0.00535262
0.00517129
0.00517051
0.00516675
0.00517735
0.0049798
0.0049786
0.00497488
0.00498467
0.0047727
0.00477067
0.00476702
0.00477586
0.00455027
0.00454725
0.00454462
0.0045522
0.00431378
0.00431007
0.00430894
0.00431493
0.00406468
0.0040604
0.0040608
0.00406541
0.00380442
0.00380093
0.00380125
0.00380494
0.00353468
0.00353185
0.0035321
0.00353509
0.00325724
0.00325471
0.00325507
0.00325756
0.00297413
0.00297151
0.00297216
0.00297432
0.00268797
0.00268467
0.00268598
0.00268798
0.00240213
0.00239863
0.0023999
0.0024019
0.00212095
0.00211782
0.00211859
0.00212042
0.00184982
0.00184733
0.00184756
0.00184909
0.00159607
0.00159439
0.00159411
0.00159541
0.00136887
0.00136824
0.00136769
0.00136875
0.00118072
0.00118002
0.00117948
0.00118057
0.00104317
0.00104235
0.00104192
0.00104273
0.000968213
0.000968135
0.000967803
0.00096822
)
;

boundaryField
{
    inlet
    {
        type            cyclic;
    }
    outlet
    {
        type            cyclic;
    }
    fixedWalls-bottom
    {
        type            kqRWallFunction;
        value           nonuniform List<scalar> 4(4.9585e-08 4.95739e-08 4.95212e-08 4.95188e-08);
    }
    fixedWalls-top
    {
        type            symmetry;
    }
    frontAndBack
    {
        type            empty;
    }
}


// ************************************************************************* //
