/*--------------------------------*- C++ -*----------------------------------*\
  =========                 |
  \\      /  F ield         | OpenFOAM: The Open Source CFD Toolbox
   \\    /   O peration     | Website:  https://openfoam.org
    \\  /    A nd           | Version:  10
     \\/     M anipulation  |
\*---------------------------------------------------------------------------*/
FoamFile
{
    format      ascii;
    class       volScalarField;
    location    "242";
    object      nut;
}
// * * * * * * * * * * * * * * * * * * * * * * * * * * * * * * * * * * * * * //

dimensions      [0 2 -1 0 0 0 0];

internalField   nonuniform List<scalar> 
200
(
1.12986e-11
1.12961e-11
1.12841e-11
1.12836e-11
2.01248e-09
2.01203e-09
2.00989e-09
2.0098e-09
4.38294e-08
4.38194e-08
4.37728e-08
4.37708e-08
3.51012e-07
3.50927e-07
3.50552e-07
3.50538e-07
1.64716e-06
1.6467e-06
1.64493e-06
1.64488e-06
5.5493e-06
5.54729e-06
5.54121e-06
5.54117e-06
1.48345e-05
1.48269e-05
1.48103e-05
1.48106e-05
3.32414e-05
3.32178e-05
3.31798e-05
3.31817e-05
6.45952e-05
6.45364e-05
6.44623e-05
6.4468e-05
0.000111505
0.000111388
0.000111265
0.000111278
0.000174309
0.00017413
0.000173952
0.000173977
0.000250879
0.000250665
0.000250451
0.000250499
0.00033339
0.000333344
0.000333148
0.000333224
0.000412978
0.00041293
0.000412732
0.000412892
0.000496144
0.000496063
0.000495868
0.000496155
0.000581924
0.000581763
0.000581598
0.000582025
0.000668982
0.000668684
0.000668587
0.00066915
0.000756288
0.00075583
0.000755806
0.000756465
0.000843594
0.000842985
0.000842937
0.000843622
0.000931965
0.0009312
0.000930931
0.000931516
0.00102339
0.00102228
0.001022
0.00102235
0.0011137
0.00111193
0.00111521
0.00111638
0.00118025
0.00117862
0.00118145
0.00118944
0.00124251
0.00124268
0.00124474
0.00125221
0.00130084
0.00129966
0.00130368
0.00131128
0.00135411
0.00135619
0.00135665
0.00136564
0.00140214
0.00140443
0.00140488
0.00141496
0.00144334
0.00144455
0.00144662
0.00145853
0.00147459
0.00148297
0.00147832
0.0014954
0.00150107
0.00151047
0.0015058
0.0015238
0.00152036
0.00153033
0.00152579
0.00154444
0.00153284
0.00154266
0.00153841
0.00155745
0.00153949
0.00154742
0.00154405
0.00156304
0.0015427
0.00154389
0.00154323
0.00156139
0.00153511
0.0015324
0.00153676
0.0015526
0.00152063
0.0015176
0.00152591
0.00153645
0.00149955
0.00149771
0.00150804
0.00151415
0.00147201
0.00147583
0.00147951
0.00148589
0.00143788
0.00144225
0.00144551
0.0014512
0.00139686
0.00140079
0.00140456
0.00140954
0.00134852
0.00135056
0.00135635
0.00136051
0.00129257
0.00128892
0.00130106
0.00130392
0.00122895
0.00122468
0.00123579
0.00123961
0.00115792
0.00115387
0.0011625
0.00116781
0.00108054
0.00107713
0.00108261
0.00108979
0.000999503
0.000996925
0.000997572
0.00100872
0.000919401
0.000917456
0.000917281
0.000928069
0.000848092
0.000846256
0.000845585
0.000855987
0.000793085
0.000792183
0.00079109
0.00080052
0.000760912
0.000766126
0.000762776
0.000770944
)
;

boundaryField
{
    inlet
    {
        type            cyclic;
    }
    outlet
    {
        type            cyclic;
    }
    fixedWalls-bottom
    {
        type            nutkWallFunction;
        Cmu             0.09;
        kappa           0.41;
        E               9.8;
        value           uniform 0;
    }
    fixedWalls-top
    {
        type            symmetry;
    }
    frontAndBack
    {
        type            empty;
    }
}


// ************************************************************************* //
