/*--------------------------------*- C++ -*----------------------------------*\
  =========                 |
  \\      /  F ield         | OpenFOAM: The Open Source CFD Toolbox
   \\    /   O peration     | Website:  https://openfoam.org
    \\  /    A nd           | Version:  10
     \\/     M anipulation  |
\*---------------------------------------------------------------------------*/
FoamFile
{
    format      ascii;
    class       volScalarField;
    location    "242";
    object      omega;
}
// * * * * * * * * * * * * * * * * * * * * * * * * * * * * * * * * * * * * * //

dimensions      [0 0 -1 0 0 0 0];

internalField   nonuniform List<scalar> 
200
(
4388.58
4388.58
4388.58
4388.58
744.377
744.377
744.378
744.377
247.311
247.312
247.312
247.312
114.977
114.978
114.978
114.978
64.7865
64.7886
64.7897
64.7891
41.3861
41.39
41.3916
41.3908
28.9497
28.9559
28.958
28.9571
21.714
21.7223
21.725
21.7241
17.2016
17.2115
17.2145
17.2137
14.2189
14.229
14.232
14.2315
12.1456
12.1545
12.1571
12.1569
10.6426
10.649
10.6507
10.6507
9.51487
9.51887
9.51928
9.51824
8.6436
8.64581
8.64422
8.64176
7.95327
7.95244
7.95031
7.94306
7.38904
7.38578
7.38353
7.37215
6.91632
6.91429
6.90789
6.89389
6.51051
6.51177
6.49766
6.48441
6.15414
6.15546
6.13924
6.12573
5.83516
5.83677
5.82063
5.80377
5.54515
5.54647
5.53283
5.51089
5.27803
5.27943
5.26462
5.24292
5.02897
5.02919
5.0177
4.99319
4.79517
4.78872
4.78098
4.76113
4.57318
4.57253
4.55809
4.53997
4.36484
4.35483
4.35194
4.33141
4.16841
4.15931
4.15594
4.13434
3.98623
3.9812
3.97321
3.94874
3.8237
3.80133
3.81053
3.77505
3.66538
3.64211
3.65076
3.61535
3.51615
3.49285
3.5007
3.46574
3.37367
3.3517
3.35851
3.32425
3.2347
3.21735
3.22198
3.18909
3.09372
3.09003
3.08899
3.05873
2.96412
2.96741
2.95728
2.932
2.83684
2.84006
2.82386
2.80838
2.71059
2.71106
2.69276
2.68494
2.5845
2.57546
2.56926
2.56071
2.45826
2.44885
2.44349
2.43598
2.33184
2.32348
2.3175
2.31108
2.20548
2.2002
2.1913
2.18618
2.07955
2.08289
2.06446
2.06146
1.95462
1.95858
1.942
1.93763
1.83168
1.83541
1.82245
1.81572
1.71194
1.71504
1.70659
1.69674
1.59686
1.59931
1.59799
1.58161
1.48887
1.49135
1.49103
1.47484
1.39221
1.39441
1.39487
1.37919
1.31533
1.3158
1.31706
1.30257
1.27244
1.26368
1.26879
1.25589
)
;

boundaryField
{
    inlet
    {
        type            cyclic;
    }
    outlet
    {
        type            cyclic;
    }
    fixedWalls-bottom
    {
        beta1           0.075;
        blended         0;
        type            omegaWallFunction;
        value           nonuniform List<scalar> 4(4388.58 4388.58 4388.58 4388.58);
    }
    fixedWalls-top
    {
        type            symmetry;
    }
    frontAndBack
    {
        type            empty;
    }
}


// ************************************************************************* //
