/*--------------------------------*- C++ -*----------------------------------*\
  =========                 |
  \\      /  F ield         | OpenFOAM: The Open Source CFD Toolbox
   \\    /   O peration     | Website:  https://openfoam.org
    \\  /    A nd           | Version:  10
     \\/     M anipulation  |
\*---------------------------------------------------------------------------*/
FoamFile
{
    format      ascii;
    class       volScalarField;
    location    "242";
    object      p;
}
// * * * * * * * * * * * * * * * * * * * * * * * * * * * * * * * * * * * * * //

dimensions      [0 2 -2 0 0 0 0];

internalField   nonuniform List<scalar> 
200
(
-2.06685e-10
-2.45124e-06
-8.26206e-06
-5.82469e-06
-7.51311e-09
-2.45478e-06
-8.25572e-06
-5.82116e-06
-1.38788e-08
-2.45826e-06
-8.24949e-06
-5.81766e-06
-1.79051e-08
-2.46151e-06
-8.24538e-06
-5.8144e-06
-1.95893e-08
-2.46485e-06
-8.24361e-06
-5.81102e-06
-1.84065e-08
-2.46922e-06
-8.24474e-06
-5.80664e-06
-1.36966e-08
-2.47563e-06
-8.24943e-06
-5.80019e-06
-4.0462e-09
-2.48645e-06
-8.25907e-06
-5.78935e-06
1.19996e-08
-2.50494e-06
-8.27513e-06
-5.77082e-06
3.64936e-08
-2.53551e-06
-8.29964e-06
-5.74022e-06
7.05548e-08
-2.58068e-06
-8.33374e-06
-5.695e-06
1.13986e-07
-2.63778e-06
-8.3772e-06
-5.63786e-06
1.63761e-07
-2.69471e-06
-8.42702e-06
-5.58087e-06
2.17213e-07
-2.74875e-06
-8.48051e-06
-5.52679e-06
2.71949e-07
-2.80797e-06
-8.53532e-06
-5.4675e-06
3.25653e-07
-2.87579e-06
-8.58908e-06
-5.39964e-06
3.75888e-07
-2.95306e-06
-8.6394e-06
-5.32231e-06
4.24132e-07
-3.04163e-06
-8.68771e-06
-5.23369e-06
4.82639e-07
-3.14753e-06
-8.7463e-06
-5.12771e-06
5.7864e-07
-3.28137e-06
-8.84234e-06
-4.9938e-06
7.10917e-07
-3.43294e-06
-8.97474e-06
-4.84221e-06
7.28168e-07
-3.5257e-06
-8.99223e-06
-4.7496e-06
4.58855e-07
-3.55974e-06
-8.72311e-06
-4.71568e-06
4.25846e-08
-3.57401e-06
-8.30688e-06
-4.70131e-06
-3.7192e-07
-3.55639e-06
-7.89245e-06
-4.71869e-06
-7.46536e-07
-3.53656e-06
-7.51795e-06
-4.73834e-06
-1.08592e-06
-3.52535e-06
-7.17877e-06
-4.74935e-06
-1.51365e-06
-3.51268e-06
-6.75118e-06
-4.76186e-06
-1.97977e-06
-3.48258e-06
-6.28521e-06
-4.79177e-06
-2.41829e-06
-3.41841e-06
-5.84682e-06
-4.8559e-06
-2.8738e-06
-3.31803e-06
-5.39148e-06
-4.95636e-06
-3.35146e-06
-3.20051e-06
-4.91395e-06
-5.07413e-06
-3.85179e-06
-3.11892e-06
-4.41383e-06
-5.15585e-06
-4.39892e-06
-3.16559e-06
-3.86689e-06
-5.10886e-06
-5.03506e-06
-3.29043e-06
-3.23099e-06
-4.98315e-06
-5.70586e-06
-3.31347e-06
-2.56029e-06
-4.95959e-06
-6.28677e-06
-3.18001e-06
-1.97947e-06
-5.09325e-06
-6.65935e-06
-2.98735e-06
-1.60708e-06
-5.28645e-06
-6.85382e-06
-2.81515e-06
-1.41298e-06
-5.45905e-06
-7.00806e-06
-2.65688e-06
-1.25906e-06
-5.61764e-06
-7.19136e-06
-2.49715e-06
-1.07602e-06
-5.77763e-06
-7.49241e-06
-2.33782e-06
-7.75001e-07
-5.93715e-06
-7.87473e-06
-2.20625e-06
-3.92631e-07
-6.06872e-06
-8.21901e-06
-2.13184e-06
-4.83423e-08
-6.14305e-06
-8.49546e-06
-2.13001e-06
2.28067e-07
-6.14475e-06
-8.70444e-06
-2.21189e-06
4.37103e-07
-6.06264e-06
-8.85968e-06
-2.3331e-06
5.92526e-07
-5.94112e-06
-8.97118e-06
-2.43392e-06
7.04275e-07
-5.83999e-06
-9.03738e-06
-2.49602e-06
7.70648e-07
-5.77764e-06
-9.0656e-06
-2.51182e-06
7.99069e-07
-5.76161e-06
)
;

boundaryField
{
    inlet
    {
        type            cyclic;
    }
    outlet
    {
        type            cyclic;
    }
    fixedWalls-bottom
    {
        type            zeroGradient;
    }
    fixedWalls-top
    {
        type            symmetry;
    }
    frontAndBack
    {
        type            empty;
    }
}


// ************************************************************************* //
