/*--------------------------------*- C++ -*----------------------------------*\
  =========                 |
  \\      /  F ield         | OpenFOAM: The Open Source CFD Toolbox
   \\    /   O peration     | Website:  https://openfoam.org
    \\  /    A nd           | Version:  10
     \\/     M anipulation  |
\*---------------------------------------------------------------------------*/
FoamFile
{
    format      ascii;
    class       surfaceScalarField;
    location    "242";
    object      phi;
}
// * * * * * * * * * * * * * * * * * * * * * * * * * * * * * * * * * * * * * //

dimensions      [0 3 -1 0 0 0 0];

internalField   nonuniform List<scalar> 
346
(
0.000376611
-3.21283e-08
0.000376629
-1.83767e-08
0.000376592
3.60705e-08
1.8239e-08
0.00116613
-1.29391e-07
0.00116618
-6.86149e-08
0.00116608
1.32378e-07
6.81181e-08
0.00201574
-2.7843e-07
0.00201582
-1.45629e-07
0.00201567
2.81178e-07
1.44963e-07
0.00292855
-4.73239e-07
0.00292865
-2.45518e-07
0.00292846
4.75586e-07
2.4455e-07
0.0039074
-7.06857e-07
0.00390751
-3.60519e-07
0.00390728
7.09027e-07
3.59487e-07
0.00495421
-9.72692e-07
0.00495433
-4.82799e-07
0.00495407
9.74754e-07
4.81528e-07
0.006069
-1.26367e-06
0.00606912
-6.01351e-07
0.00606883
1.26559e-06
6.00093e-07
0.00724867
-1.5693e-06
0.00724878
-7.09666e-07
0.00724847
1.57125e-06
7.08221e-07
0.0084864
-1.87563e-06
0.00848649
-8.06149e-07
0.00848619
1.87745e-06
8.04771e-07
0.00977233
-2.16235e-06
0.00977243
-9.02076e-07
0.00977214
2.16425e-06
9.00559e-07
0.0110958
-2.41062e-06
0.0110959
-1.01283e-06
0.0110956
2.41243e-06
1.01142e-06
0.0124477
-2.60826e-06
0.0124479
-1.14909e-06
0.0124477
2.61015e-06
1.14758e-06
0.0138241
-2.76461e-06
0.0138243
-1.27077e-06
0.0138241
2.76641e-06
1.26938e-06
0.0152272
-2.89715e-06
0.0152272
-1.335e-06
0.0152271
2.89904e-06
1.33355e-06
0.0166598
-3.02503e-06
0.0166598
-1.33375e-06
0.0166597
3.02682e-06
1.33243e-06
0.0181229
-3.1598e-06
0.0181228
-1.26159e-06
0.0181227
3.16169e-06
1.26025e-06
0.0196182
-3.30593e-06
0.019618
-1.10794e-06
0.0196179
3.30769e-06
1.10672e-06
0.0211477
-3.44004e-06
0.0211474
-8.54848e-07
0.0211473
3.44191e-06
8.53632e-07
0.0227137
-3.48343e-06
0.0227133
-4.87013e-07
0.0227133
3.48515e-06
4.8589e-07
0.024318
-3.25238e-06
0.0243175
-2.97036e-08
0.0243178
3.25423e-06
2.86219e-08
0.0259617
-2.47688e-06
0.0259612
4.1144e-07
0.025962
2.47853e-06
-4.12459e-07
0.027646
-1.31307e-06
0.0276455
9.13452e-07
0.0276467
1.31486e-06
-9.14403e-07
0.0293776
-4.84844e-07
0.0293771
1.42318e-06
0.0293779
4.86381e-07
-1.42411e-06
0.0311632
-1.47809e-07
0.0311628
1.77395e-06
0.0311631
1.49466e-07
-1.77481e-06
0.0330055
-1.09321e-07
0.0330053
2.01994e-06
0.0330053
1.10703e-07
-2.02076e-06
0.0349072
-1.60639e-07
0.0349071
2.17813e-06
0.034907
1.62112e-07
-2.17893e-06
0.0368709
-1.93278e-08
0.0368709
2.24865e-06
0.036871
2.05366e-08
-2.24937e-06
0.0388998
7.10576e-08
0.0388999
2.2227e-06
0.0389
-6.97938e-08
-2.22348e-06
0.0409969
5.63454e-08
0.040997
2.11786e-06
0.040997
-5.5325e-08
-2.11845e-06
0.043165
7.32647e-08
0.0431651
2.02447e-06
0.0431651
-7.22122e-08
-2.0252e-06
0.0454071
4.70812e-08
0.045407
2.04872e-06
0.045407
-4.62399e-08
-2.04916e-06
0.0477257
-2.62381e-08
0.0477254
2.26606e-06
0.0477254
2.71355e-08
-2.26667e-06
0.050123
-4.70946e-08
0.0501226
2.66719e-06
0.0501226
4.77435e-08
-2.66745e-06
0.0526008
1.13534e-07
0.0526006
2.8674e-06
0.0526008
-1.12765e-07
-2.86786e-06
0.0551608
3.27824e-07
0.0551611
2.49895e-06
0.0551613
-3.27358e-07
-2.49905e-06
0.0578042
3.72777e-07
0.057805
1.74225e-06
0.057805
-3.72093e-07
-1.7426e-06
0.0605315
1.35297e-07
0.0605322
1.01106e-06
0.060532
-1.34974e-07
-1.01107e-06
0.0633418
-1.38115e-07
0.0633423
5.17093e-07
0.063342
1.38713e-07
-5.17373e-07
0.0662341
-1.79484e-07
0.0662343
2.75451e-07
0.0662343
1.79629e-07
-2.7536e-07
0.0692066
-6.61752e-08
0.0692066
2.81399e-07
0.0692067
6.66075e-08
-2.81603e-07
0.0722563
1.89265e-07
0.0722561
4.51383e-07
0.0722564
-1.89224e-07
-4.51256e-07
0.0753786
3.09504e-07
0.0753784
6.43136e-07
0.0753786
-3.09145e-07
-6.43357e-07
0.078567
1.23397e-07
0.0785669
7.29664e-07
0.0785667
-1.2331e-07
-7.29633e-07
0.0818117
-1.62857e-07
0.0818117
7.06105e-07
0.0818114
1.63187e-07
-7.06352e-07
0.0850999
-4.05446e-07
0.0850999
6.60347e-07
0.0850997
4.05639e-07
-6.60469e-07
0.0884133
-4.98589e-07
0.0884135
5.51581e-07
0.0884134
4.98844e-07
-5.51789e-07
0.0917272
-4.38735e-07
0.0917274
3.72611e-07
0.0917275
4.38937e-07
-3.72785e-07
0.0950081
-2.95974e-07
0.0950083
1.96091e-07
0.0950084
2.96193e-07
-1.96299e-07
0.0982136
-1.26877e-07
0.0982138
3.47726e-08
0.0982139
1.27014e-07
-3.491e-08
0.101295
0.101295
0.101295
)
;

boundaryField
{
    inlet
    {
        type            cyclic;
        value           nonuniform List<scalar> 
50
(
-0.101295
-0.0982138
-0.0950082
-0.0917273
-0.0884132
-0.0850996
-0.0818114
-0.0785668
-0.0753788
-0.0722565
-0.0692067
-0.066234
-0.0633415
-0.0605312
-0.0578043
-0.055161
-0.052601
-0.050123
-0.0477256
-0.045407
-0.043165
-0.0409969
-0.0388999
-0.0368711
-0.0349072
-0.0330055
-0.0311635
-0.0293785
-0.0276472
-0.0259624
-0.0243182
-0.0227136
-0.0211475
-0.019618
-0.0181228
-0.0166597
-0.015227
-0.013824
-0.0124475
-0.0110955
-0.00977205
-0.00848609
-0.00724837
-0.00606871
-0.00495394
-0.00390716
-0.00292836
-0.00201559
-0.00116603
-0.000376574
)
;
    }
    outlet
    {
        type            cyclic;
        value           nonuniform List<scalar> 
50
(
0.101295
0.0982138
0.0950082
0.0917273
0.0884132
0.0850996
0.0818114
0.0785668
0.0753788
0.0722565
0.0692067
0.066234
0.0633415
0.0605312
0.0578043
0.055161
0.052601
0.050123
0.0477256
0.045407
0.043165
0.0409969
0.0388999
0.0368711
0.0349072
0.0330055
0.0311635
0.0293785
0.0276472
0.0259624
0.0243182
0.0227136
0.0211475
0.019618
0.0181228
0.0166597
0.015227
0.013824
0.0124475
0.0110955
0.00977205
0.00848609
0.00724837
0.00606871
0.00495394
0.00390716
0.00292836
0.00201559
0.00116603
0.000376574
)
;
    }
    fixedWalls-bottom
    {
        type            calculated;
        value           uniform 0;
    }
    fixedWalls-top
    {
        type            symmetry;
        value           uniform 0;
    }
    frontAndBack
    {
        type            empty;
        value           nonuniform List<scalar> 0();
    }
}


// ************************************************************************* //
