/*--------------------------------*- C++ -*----------------------------------*\
  =========                 |
  \\      /  F ield         | OpenFOAM: The Open Source CFD Toolbox
   \\    /   O peration     | Website:  https://openfoam.org
    \\  /    A nd           | Version:  10
     \\/     M anipulation  |
\*---------------------------------------------------------------------------*/
FoamFile
{
    format      ascii;
    class       volSymmTensorField;
    location    "242";
    object      R;
}
// * * * * * * * * * * * * * * * * * * * * * * * * * * * * * * * * * * * * * //

dimensions      [0 2 -2 0 0 0 0];

internalField   nonuniform List<symmTensor> 
200
(
(3.30566e-08 -4.99008e-11 -0 3.30566e-08 -0 3.30566e-08)
(3.30493e-08 -4.98957e-11 -0 3.30493e-08 -0 3.30493e-08)
(3.30141e-08 -4.98407e-11 -0 3.30141e-08 -0 3.30141e-08)
(3.30125e-08 -4.98321e-11 -0 3.30125e-08 -0 3.30125e-08)
(9.98697e-07 -8.80478e-09 -0 9.98697e-07 -0 9.98697e-07)
(9.98474e-07 -8.80369e-09 -0 9.98474e-07 -0 9.98474e-07)
(9.97413e-07 -8.79406e-09 -0 9.97413e-07 -0 9.97413e-07)
(9.97364e-07 -8.79272e-09 -0 9.97364e-07 -0 9.97364e-07)
(7.22633e-06 -1.89876e-07 -0 7.22634e-06 -0 7.22633e-06)
(7.22471e-06 -1.89848e-07 -0 7.22471e-06 -0 7.22471e-06)
(7.21703e-06 -1.89641e-07 -0 7.21703e-06 -0 7.21703e-06)
(7.21669e-06 -1.89616e-07 -0 7.21669e-06 -0 7.21669e-06)
(2.69054e-05 -1.50466e-06 -0 2.69054e-05 -0 2.69054e-05)
(2.68992e-05 -1.50438e-06 -0 2.68992e-05 -0 2.68992e-05)
(2.68706e-05 -1.50274e-06 -0 2.68706e-05 -0 2.68706e-05)
(2.68694e-05 -1.50259e-06 -0 2.68694e-05 -0 2.68694e-05)
(7.11425e-05 -6.97661e-06 -0 7.11427e-05 -0 7.11426e-05)
(7.11251e-05 -6.97492e-06 -0 7.11252e-05 -0 7.11251e-05)
(7.10497e-05 -6.96727e-06 -0 7.10496e-05 -0 7.10496e-05)
(7.10469e-05 -6.96676e-06 -0 7.10469e-05 -0 7.10469e-05)
(0.000153109 -2.31575e-05 -0 0.000153109 -0 0.000153109)
(0.000153068 -2.31494e-05 -0 0.000153068 -0 0.000153068)
(0.000152907 -2.31236e-05 -0 0.000152906 -0 0.000152906)
(0.000152902 -2.31229e-05 -0 0.000152902 -0 0.000152902)
(0.000286301 -6.06779e-05 -0 0.000286303 -0 0.000286302)
(0.000286217 -6.06468e-05 -0 0.000286218 -0 0.000286217)
(0.000285919 -6.05777e-05 -0 0.000285917 -0 0.000285918)
(0.000285916 -6.05786e-05 -0 0.000285915 -0 0.000285915)
(0.000481199 -0.000132215 -0 0.000481203 -0 0.000481201)
(0.000481045 -0.000132119 -0 0.000481046 -0 0.000481045)
(0.000480556 -0.000131967 -0 0.000480553 -0 0.000480555)
(0.000480562 -0.000131976 -0 0.000480561 -0 0.000480561)
(0.000740758 -0.000247232 -0 0.000740765 -0 0.000740761)
(0.000740509 -0.000247002 -0 0.000740512 -0 0.00074051)
(0.000739793 -0.000246718 -0 0.000739786 -0 0.000739789)
(0.000739822 -0.000246748 -0 0.00073982 -0 0.000739821)
(0.00105698 -0.000405947 -0 0.00105699 -0 0.00105698)
(0.00105663 -0.00040552 -0 0.00105663 -0 0.00105663)
(0.00105568 -0.000405078 -0 0.00105567 -0 0.00105568)
(0.00105576 -0.000405145 -0 0.00105576 -0 0.00105576)
(0.00141139 -0.000597218 -0 0.0014114 -0 0.00141139)
(0.00141097 -0.000596606 -0 0.00141098 -0 0.00141098)
(0.00140985 -0.000596018 -0 0.00140983 -0 0.00140984)
(0.00141002 -0.000596143 -0 0.00141001 -0 0.00141002)
(0.00177999 -0.000803023 -0 0.00178001 -0 0.00178)
(0.00177955 -0.000802324 -0 0.00177956 -0 0.00177956)
(0.00177832 -0.000801657 -0 0.00177831 -0 0.00177832)
(0.00177867 -0.000801874 -0 0.00177866 -0 0.00177867)
(0.0021399 -0.000995058 -0 0.00213992 -0 0.00213991)
(0.00213946 -0.000994852 -0 0.00213947 -0 0.00213947)
(0.0021382 -0.000994261 -0 0.00213819 -0 0.0021382)
(0.00213885 -0.000994564 -0 0.00213884 -0 0.00213885)
(0.00247577 -0.00115124 -0 0.00247579 -0 0.00247578)
(0.00247525 -0.00115099 -0 0.00247526 -0 0.00247526)
(0.002474 -0.0011504 -0 0.00247398 -0 0.00247399)
(0.00247512 -0.00115093 -0 0.00247511 -0 0.00247511)
(0.00278082 -0.00129309 -0 0.00278084 -0 0.00278083)
(0.00278013 -0.00129276 -0 0.00278013 -0 0.00278013)
(0.00277891 -0.00129219 -0 0.00277889 -0 0.0027789)
(0.00278064 -0.001293 -0 0.00278064 -0 0.00278064)
(0.00305033 -0.00141842 -0 0.00305036 -0 0.00305034)
(0.00304923 -0.0014179 -0 0.00304922 -0 0.00304923)
(0.00304819 -0.00141741 -0 0.00304816 -0 0.00304818)
(0.00305055 -0.00141852 -0 0.00305056 -0 0.00305056)
(0.00328229 -0.00152634 -0 0.00328232 -0 0.0032823)
(0.00328053 -0.00152551 -0 0.0032805 -0 0.00328052)
(0.00327981 -0.00152518 -0 0.00327978 -0 0.00327979)
(0.00328281 -0.00152658 -0 0.00328284 -0 0.00328282)
(0.00347676 -0.00161713 -0 0.00347679 -0 0.00347677)
(0.00347419 -0.00161592 -0 0.00347414 -0 0.00347417)
(0.00347388 -0.00161577 -0 0.00347385 -0 0.00347387)
(0.0034775 -0.00161745 -0 0.00347755 -0 0.00347753)
(0.00363525 -0.00169223 -0 0.00363526 -0 0.00363525)
(0.00363185 -0.00169063 -0 0.00363177 -0 0.00363181)
(0.00363186 -0.00169058 -0 0.00363185 -0 0.00363186)
(0.00363616 -0.00169255 -0 0.00363624 -0 0.0036362)
(0.00376006 -0.00175441 -0 0.00375999 -0 0.00376003)
(0.00375591 -0.00175249 -0 0.00375581 -0 0.00375586)
(0.00375603 -0.00175237 -0 0.0037561 -0 0.00375606)
(0.00376115 -0.00175456 -0 0.00376125 -0 0.00376121)
(0.00385381 -0.00180778 -0 0.00385361 -0 0.00385371)
(0.003849 -0.00180558 -0 0.00384888 -0 0.00384895)
(0.00384914 -0.0018053 -0 0.00384934 -0 0.00384924)
(0.00385512 -0.00180743 -0 0.00385524 -0 0.00385517)
(0.0039189 -0.00185113 -0 0.00391862 -0 0.00391875)
(0.00391363 -0.00184862 -0 0.00391349 -0 0.00391356)
(0.00391396 -0.00185355 -0 0.00391425 -0 0.00391412)
(0.00392065 -0.00185605 -0 0.00392079 -0 0.00392072)
(0.00395706 -0.00185658 -0 0.00395683 -0 0.00395695)
(0.00395175 -0.00185482 -0 0.00395161 -0 0.00395168)
(0.00395199 -0.00185882 -0 0.00395222 -0 0.00395211)
(0.00395933 -0.00187008 -0 0.00395947 -0 0.0039594)
(0.00397207 -0.00185662 -0 0.00397196 -0 0.00397202)
(0.0039673 -0.00185766 -0 0.0039672 -0 0.00396725)
(0.00396733 -0.00186051 -0 0.00396743 -0 0.00396738)
(0.00397458 -0.00187025 -0 0.00397468 -0 0.00397463)
(0.00396598 -0.00184863 -0 0.00396596 -0 0.00396597)
(0.00396186 -0.00184763 -0 0.00396179 -0 0.00396182)
(0.00396153 -0.00185307 -0 0.00396155 -0 0.00396154)
(0.00396876 -0.00186336 -0 0.00396883 -0 0.0039688)
(0.00394031 -0.00183202 -0 0.00394031 -0 0.00394031)
(0.00393734 -0.00183498 -0 0.00393729 -0 0.00393731)
(0.00393603 -0.0018358 -0 0.00393603 -0 0.00393602)
(0.00394341 -0.00184794 -0 0.00394345 -0 0.00394343)
(0.00389649 -0.00180772 -0 0.00389646 -0 0.00389646)
(0.00389431 -0.00181099 -0 0.00389429 -0 0.0038943)
(0.00389237 -0.00181159 -0 0.00389239 -0 0.00389239)
(0.00389992 -0.00182483 -0 0.00389994 -0 0.00389993)
(0.00383566 -0.00177544 -0 0.00383563 -0 0.00383565)
(0.00383403 -0.00177744 -0 0.00383403 -0 0.00383403)
(0.00383181 -0.00177979 -0 0.00383184 -0 0.00383182)
(0.00383957 -0.00179434 -0 0.00383956 -0 0.00383957)
(0.00375892 -0.00173284 -0 0.00375891 -0 0.00375892)
(0.00375816 -0.00174217 -0 0.00375819 -0 0.00375817)
(0.00375547 -0.00173733 -0 0.00375548 -0 0.00375547)
(0.00376349 -0.00175663 -0 0.00376346 -0 0.00376348)
(0.003668 -0.00168626 -0 0.003668 -0 0.003668)
(0.00366753 -0.00169577 -0 0.00366755 -0 0.00366754)
(0.00366486 -0.00169133 -0 0.00366487 -0 0.00366487)
(0.00367273 -0.00171072 -0 0.00367271 -0 0.00367272)
(0.00356387 -0.00163329 -0 0.00356387 -0 0.00356387)
(0.00356349 -0.00164309 -0 0.00356348 -0 0.00356348)
(0.0035609 -0.00163861 -0 0.00356089 -0 0.0035609)
(0.00356841 -0.00165809 -0 0.00356842 -0 0.00356841)
(0.00344752 -0.00157502 -0 0.00344753 -0 0.00344752)
(0.00344704 -0.00158411 -0 0.00344697 -0 0.00344701)
(0.00344451 -0.00158015 -0 0.00344449 -0 0.0034445)
(0.00345154 -0.0015993 -0 0.0034516 -0 0.00345157)
(0.00331987 -0.00151214 -0 0.00331987 -0 0.00331987)
(0.00331911 -0.00151927 -0 0.00331902 -0 0.00331906)
(0.00331659 -0.00151663 -0 0.00331658 -0 0.00331658)
(0.00332306 -0.00153494 -0 0.00332316 -0 0.00332312)
(0.00318181 -0.00144717 -0 0.00318178 -0 0.00318179)
(0.00318047 -0.00144863 -0 0.00318043 -0 0.00318044)
(0.003178 -0.00144872 -0 0.00317803 -0 0.00317802)
(0.00318389 -0.00146536 -0 0.00318393 -0 0.00318391)
(0.00303353 -0.00137426 -0 0.00303349 -0 0.00303351)
(0.00303146 -0.00137289 -0 0.00303154 -0 0.00303151)
(0.00302972 -0.00137696 -0 0.00302977 -0 0.00302975)
(0.00303485 -0.00139082 -0 0.00303476 -0 0.0030348)
(0.00287586 -0.00129736 -0 0.00287585 -0 0.00287585)
(0.00287329 -0.00129585 -0 0.00287346 -0 0.00287338)
(0.00287262 -0.00130227 -0 0.00287263 -0 0.00287263)
(0.00287671 -0.00131137 -0 0.00287654 -0 0.00287662)
(0.00270976 -0.00121653 -0 0.0027098 -0 0.00270979)
(0.00270685 -0.00121551 -0 0.00270702 -0 0.00270693)
(0.00270722 -0.00122306 -0 0.00270718 -0 0.00270719)
(0.00271036 -0.00122847 -0 0.00271018 -0 0.00271027)
(0.00253625 -0.00113218 -0 0.0025363 -0 0.00253628)
(0.0025339 -0.00113474 -0 0.00253402 -0 0.00253395)
(0.0025342 -0.00113738 -0 0.00253414 -0 0.00253416)
(0.00253669 -0.00114269 -0 0.00253657 -0 0.00253663)
(0.00235645 -0.00104461 -0 0.00235646 -0 0.00235645)
(0.00235454 -0.00104715 -0 0.00235459 -0 0.00235456)
(0.00235474 -0.00104963 -0 0.00235472 -0 0.00235473)
(0.00235675 -0.00105403 -0 0.0023567 -0 0.00235673)
(0.00217151 -0.000954107 -0 0.00217149 -0 0.0021715)
(0.00216981 -0.000956339 -0 0.0021698 -0 0.00216981)
(0.00217004 -0.000958988 -0 0.00217006 -0 0.00217005)
(0.0021717 -0.000962571 -0 0.00217171 -0 0.00217171)
(0.00198277 -0.000860949 -0 0.00198274 -0 0.00198275)
(0.00198103 -0.000862189 -0 0.00198099 -0 0.00198101)
(0.00198142 -0.00086579 -0 0.00198146 -0 0.00198144)
(0.00198286 -0.000868536 -0 0.0019829 -0 0.00198288)
(0.00179198 -0.000765536 -0 0.00179197 -0 0.00179198)
(0.0017898 -0.000763746 -0 0.00178976 -0 0.00178978)
(0.00179065 -0.00077062 -0 0.00179066 -0 0.00179065)
(0.00179197 -0.000772293 -0 0.001792 -0 0.00179198)
(0.0016014 -0.000668437 -0 0.00160143 -0 0.00160142)
(0.0015991 -0.000666467 -0 0.00159908 -0 0.00159909)
(0.00159995 -0.000672298 -0 0.00159992 -0 0.00159993)
(0.00160126 -0.000674308 -0 0.00160127 -0 0.00160127)
(0.00141394 -0.000570348 -0 0.00141399 -0 0.00141397)
(0.00141188 -0.000568454 -0 0.00141188 -0 0.00141188)
(0.00141242 -0.000572677 -0 0.00141237 -0 0.00141239)
(0.00141362 -0.000575285 -0 0.00141361 -0 0.00141362)
(0.00123319 -0.000472265 -0 0.00123323 -0 0.00123321)
(0.00123155 -0.000470729 -0 0.00123156 -0 0.00123155)
(0.00123173 -0.000473208 -0 0.00123169 -0 0.00123171)
(0.00123273 -0.000476357 -0 0.00123272 -0 0.00123273)
(0.00106403 -0.000375762 -0 0.00106405 -0 0.00106405)
(0.00106292 -0.000374689 -0 0.00106294 -0 0.00106293)
(0.00106275 -0.000375093 -0 0.00106273 -0 0.00106274)
(0.00106361 -0.000379257 -0 0.0010636 -0 0.00106361)
(0.000912582 -0.000282737 -0 0.000912581 -0 0.000912584)
(0.000912155 -0.000282067 -0 0.00091217 -0 0.000912163)
(0.000911795 -0.000282108 -0 0.000911796 -0 0.000911794)
(0.000912507 -0.000285418 -0 0.000912492 -0 0.000912499)
(0.000787152 -0.000195317 -0 0.000787142 -0 0.00078715)
(0.000786676 -0.000194871 -0 0.000786691 -0 0.000786683)
(0.000786314 -0.000194729 -0 0.000786324 -0 0.000786317)
(0.000787053 -0.000197142 -0 0.000787038 -0 0.000787046)
(0.000695451 -0.000114028 -0 0.000695441 -0 0.000695448)
(0.000694897 -0.000113872 -0 0.000694908 -0 0.000694903)
(0.000694607 -0.000113698 -0 0.000694616 -0 0.000694609)
(0.000695159 -0.000115069 -0 0.000695148 -0 0.000695153)
(0.000645478 -3.73682e-05 -0 0.000645471 -0 0.000645476)
(0.000645422 -3.76025e-05 -0 0.000645425 -0 0.000645422)
(0.000645199 -3.74251e-05 -0 0.000645206 -0 0.000645201)
(0.000645481 -3.78335e-05 -0 0.000645478 -0 0.000645481)
)
;

boundaryField
{
    inlet
    {
        type            cyclic;
    }
    outlet
    {
        type            cyclic;
    }
    fixedWalls-bottom
    {
        type            kqRWallFunction;
        value           nonuniform List<symmTensor> 4((3.30566e-08 -0 -0 3.30566e-08 -0 3.30566e-08) (3.30493e-08 -0 -0 3.30493e-08 -0 3.30493e-08) (3.30141e-08 -0 -0 3.30141e-08 -0 3.30141e-08) (3.30125e-08 -0 -0 3.30125e-08 -0 3.30125e-08));
    }
    fixedWalls-top
    {
        type            symmetry;
    }
    frontAndBack
    {
        type            empty;
    }
}


// ************************************************************************* //
