/*--------------------------------*- C++ -*----------------------------------*\
  =========                 |
  \\      /  F ield         | OpenFOAM: The Open Source CFD Toolbox
   \\    /   O peration     | Website:  https://openfoam.org
    \\  /    A nd           | Version:  10
     \\/     M anipulation  |
\*---------------------------------------------------------------------------*/
FoamFile
{
    format      ascii;
    class       volVectorField;
    location    "242";
    object      U;
}
// * * * * * * * * * * * * * * * * * * * * * * * * * * * * * * * * * * * * * //

dimensions      [0 1 -1 0 0 0 0];

internalField   nonuniform List<vector> 
200
(
(0.0204382 -4.21283e-09 0)
(0.0204409 -4.05288e-09 0)
(0.02044 7.28643e-09 0)
(0.0204373 3.97665e-09 0)
(0.0615196 -7.09319e-08 0)
(0.0615268 -3.74915e-08 0)
(0.0615246 7.40281e-08 0)
(0.0615172 3.71833e-08 0)
(0.103376 -1.92583e-07 0)
(0.103387 -1.01068e-07 0)
(0.103383 1.95915e-07 0)
(0.103372 1.00484e-07 0)
(0.146 -3.66755e-07 0)
(0.146013 -1.90833e-07 0)
(0.146009 3.69332e-07 0)
(0.145995 1.90004e-07 0)
(0.189366 -5.83365e-07 0)
(0.189382 -3.00119e-07 0)
(0.189377 5.85549e-07 0)
(0.18936 2.99104e-07 0)
(0.233402 -8.35338e-07 0)
(0.233419 -4.20606e-07 0)
(0.233413 8.37388e-07 0)
(0.233394 4.19446e-07 0)
(0.277947 -1.1163e-06 0)
(0.277965 -5.4232e-07 0)
(0.277958 1.11825e-06 0)
(0.277939 5.41046e-07 0)
(0.322715 -1.41798e-06 0)
(0.322732 -6.55846e-07 0)
(0.322724 1.41989e-06 0)
(0.322705 6.5449e-07 0)
(0.367281 -1.72812e-06 0)
(0.367297 -7.57216e-07 0)
(0.367289 1.73e-06 0)
(0.367271 7.558e-07 0)
(0.411139 -2.02861e-06 0)
(0.411154 -8.53011e-07 0)
(0.411146 2.03047e-06 0)
(0.41113 8.51561e-07 0)
(0.453797 -2.29794e-06 0)
(0.453812 -9.60013e-07 0)
(0.453805 2.29979e-06 0)
(0.453792 9.58546e-07 0)
(0.494889 -2.5195e-06 0)
(0.494904 -1.09138e-06 0)
(0.4949 2.52135e-06 0)
(0.494889 1.08992e-06 0)
(0.534281 -2.69388e-06 0)
(0.534294 -1.21324e-06 0)
(0.53429 2.69572e-06 0)
(0.534283 1.21179e-06 0)
(0.572092 -2.83314e-06 0)
(0.572102 -1.31481e-06 0)
(0.572097 2.83498e-06 0)
(0.572092 1.31339e-06 0)
(0.608458 -2.95921e-06 0)
(0.608464 -1.35069e-06 0)
(0.608457 2.96104e-06 0)
(0.608455 1.34931e-06 0)
(0.643433 -3.08871e-06 0)
(0.643436 -1.31588e-06 0)
(0.643427 3.09054e-06 0)
(0.643427 1.31455e-06 0)
(0.677092 -3.23538e-06 0)
(0.677092 -1.2043e-06 0)
(0.677081 3.23719e-06 0)
(0.677083 1.20301e-06 0)
(0.709523 -3.39857e-06 0)
(0.709519 -9.99978e-07 0)
(0.709505 3.40036e-06 0)
(0.709511 9.98743e-07 0)
(0.740808 -3.52545e-06 0)
(0.740798 -6.90086e-07 0)
(0.740784 3.52725e-06 0)
(0.740796 6.88935e-07 0)
(0.771012 -3.43331e-06 0)
(0.770995 -2.96788e-07 0)
(0.770983 3.43523e-06 0)
(0.77101 2.95789e-07 0)
(0.800168 -2.82922e-06 0)
(0.800142 1.24417e-07 0)
(0.800141 2.83089e-06 0)
(0.800191 -1.25551e-07 0)
(0.828313 -1.88101e-06 0)
(0.828287 7.16663e-07 0)
(0.828282 1.88261e-06 0)
(0.828357 -7.17915e-07 0)
(0.855634 -9.65078e-07 0)
(0.85562 1.18122e-06 0)
(0.855604 9.6677e-07 0)
(0.85567 -1.18221e-06 0)
(0.882313 -2.13176e-07 0)
(0.882311 1.65304e-06 0)
(0.882293 2.14819e-07 0)
(0.88233 -1.65367e-06 0)
(0.908402 -1.35027e-07 0)
(0.908411 1.94318e-06 0)
(0.908388 1.36513e-07 0)
(0.908414 -1.94395e-06 0)
(0.933939 -7.47674e-08 0)
(0.933955 2.11585e-06 0)
(0.933931 7.62127e-08 0)
(0.933953 -2.11669e-06 0)
(0.958962 -6.63582e-08 0)
(0.958975 2.22646e-06 0)
(0.958958 6.7697e-08 0)
(0.958983 -2.22729e-06 0)
(0.983502 -5.13966e-08 0)
(0.983527 2.24825e-06 0)
(0.983503 5.25456e-08 0)
(0.983533 -2.249e-06 0)
(1.00761 9.79544e-08 0)
(1.00763 2.17301e-06 0)
(1.00761 -9.67895e-08 0)
(1.00763 -2.17369e-06 0)
(1.03131 8.20286e-08 0)
(1.03132 2.06045e-06 0)
(1.03131 -8.10013e-08 0)
(1.03132 -2.06108e-06 0)
(1.05462 7.23315e-08 0)
(1.05462 2.01871e-06 0)
(1.05462 -7.1369e-08 0)
(1.05462 -2.01927e-06 0)
(1.07756 2.1732e-08 0)
(1.07754 2.16119e-06 0)
(1.07755 -2.08683e-08 0)
(1.07754 -2.16173e-06 0)
(1.10012 -3.70131e-08 0)
(1.10009 2.51277e-06 0)
(1.10011 3.77544e-08 0)
(1.10009 -2.51323e-06 0)
(1.1223 7.09228e-09 0)
(1.12227 2.73903e-06 0)
(1.12229 -6.45064e-09 0)
(1.12228 -2.73976e-06 0)
(1.14409 1.30232e-07 0)
(1.14407 2.70802e-06 0)
(1.1441 -1.29813e-07 0)
(1.14407 -2.70827e-06 0)
(1.16546 3.26556e-07 0)
(1.16546 2.20094e-06 0)
(1.16549 -3.2608e-07 0)
(1.16546 -2.20097e-06 0)
(1.18639 2.31779e-07 0)
(1.18641 1.44104e-06 0)
(1.18642 -2.31303e-07 0)
(1.1864 -1.44118e-06 0)
(1.20684 9.99454e-08 0)
(1.20686 7.07779e-07 0)
(1.20686 -9.92064e-08 0)
(1.20685 -7.07944e-07 0)
(1.22675 -1.38072e-07 0)
(1.22676 3.09924e-07 0)
(1.22676 1.38667e-07 0)
(1.22676 -3.09814e-07 0)
(1.24606 -9.91247e-08 0)
(1.24605 2.1303e-07 0)
(1.24606 9.96485e-08 0)
(1.24606 -2.12914e-07 0)
(1.26468 1.23771e-07 0)
(1.26467 3.55856e-07 0)
(1.26467 -1.23243e-07 0)
(1.26467 -3.5574e-07 0)
(1.28253 1.92432e-07 0)
(1.28252 5.98523e-07 0)
(1.28252 -1.92223e-07 0)
(1.28252 -5.98275e-07 0)
(1.29948 2.04017e-07 0)
(1.29948 7.42997e-07 0)
(1.29947 -2.03738e-07 0)
(1.29947 -7.42773e-07 0)
(1.3154 -2.46736e-08 0)
(1.3154 7.42458e-07 0)
(1.3154 2.48324e-08 0)
(1.31539 -7.4257e-07 0)
(1.3301 -3.07411e-07 0)
(1.3301 6.86026e-07 0)
(1.3301 3.07603e-07 0)
(1.33009 -6.86341e-07 0)
(1.34334 -4.74595e-07 0)
(1.34334 5.39746e-07 0)
(1.34334 4.74756e-07 0)
(1.34334 -5.40272e-07 0)
(1.35481 -4.97922e-07 0)
(1.35482 4.3472e-07 0)
(1.35482 4.98083e-07 0)
(1.35481 -4.35123e-07 0)
(1.36413 -3.6968e-07 0)
(1.36413 2.66835e-07 0)
(1.36413 3.69755e-07 0)
(1.36413 -2.67218e-07 0)
(1.37082 -1.82019e-07 0)
(1.37082 1.13495e-07 0)
(1.37082 1.82145e-07 0)
(1.37082 -1.13602e-07 0)
(1.37439 -4.73295e-08 0)
(1.37438 3.7273e-08 0)
(1.37439 4.72503e-08 0)
(1.37438 -3.74904e-08 0)
)
;

boundaryField
{
    inlet
    {
        type            cyclic;
    }
    outlet
    {
        type            cyclic;
    }
    fixedWalls-bottom
    {
        type            noSlip;
    }
    fixedWalls-top
    {
        type            symmetry;
    }
    frontAndBack
    {
        type            empty;
    }
}


// ************************************************************************* //
