/*--------------------------------*- C++ -*----------------------------------*\
  =========                 |
  \\      /  F ield         | OpenFOAM: The Open Source CFD Toolbox
   \\    /   O peration     | Website:  https://openfoam.org
    \\  /    A nd           | Version:  10
     \\/     M anipulation  |
\*---------------------------------------------------------------------------*/
FoamFile
{
    format      ascii;
    class       volScalarField;
    location    "2500";
    object      k;
}
// * * * * * * * * * * * * * * * * * * * * * * * * * * * * * * * * * * * * * //

dimensions      [0 2 -2 0 0 0 0];

internalField   nonuniform List<scalar> 
400
(
5.34235e-06
5.34353e-06
5.3435e-06
5.34123e-06
0.000159871
0.000159906
0.000159905
0.000159837
0.00109144
0.00109167
0.00109167
0.00109121
0.00331398
0.0033146
0.00331456
0.00331327
0.00597897
0.00597986
0.00597975
0.00597763
0.00816679
0.00816775
0.00816757
0.00816477
0.00978065
0.00978158
0.00978133
0.0097779
0.01098
0.0109809
0.0109805
0.0109765
0.0119118
0.0119125
0.0119121
0.0119074
0.0126759
0.0126763
0.0126758
0.0126704
0.0133356
0.0133356
0.013335
0.0133288
0.0139303
0.01393
0.0139292
0.0139222
0.0144845
0.014484
0.014483
0.0144752
0.0150132
0.0150127
0.0150115
0.0150028
0.0155263
0.0155255
0.0155242
0.0155144
0.0160287
0.0160279
0.0160266
0.0160157
0.0165239
0.0165232
0.0165219
0.0165098
0.0170139
0.0170132
0.0170119
0.0169988
0.0174996
0.0174989
0.0174975
0.0174836
0.0179816
0.0179808
0.0179793
0.0179648
0.0184601
0.0184591
0.0184575
0.0184424
0.0189349
0.0189338
0.0189322
0.0189165
0.019406
0.0194048
0.0194031
0.0193869
0.0198731
0.0198719
0.0198702
0.0198534
0.0203359
0.020335
0.0203332
0.0203158
0.0207939
0.0207939
0.0207919
0.0207739
0.0212478
0.0212483
0.0212461
0.0212274
0.021697
0.0216977
0.0216954
0.0216762
0.0221412
0.022142
0.0221398
0.0221199
0.0225803
0.0225811
0.0225789
0.0225584
0.0230139
0.0230148
0.0230125
0.0229915
0.023442
0.0234429
0.0234405
0.023419
0.0238642
0.0238652
0.0238626
0.0238406
0.0242805
0.0242815
0.0242786
0.0242564
0.0246906
0.0246917
0.0246885
0.0246659
0.0250945
0.0250953
0.0250921
0.0250692
0.0254922
0.0254922
0.0254893
0.025466
0.0258836
0.0258823
0.0258798
0.0258561
0.0262678
0.0262658
0.0262636
0.0262395
0.0266449
0.0266426
0.0266405
0.026616
0.0270148
0.0270123
0.0270103
0.0269854
0.0273775
0.0273749
0.027373
0.0273477
0.0277329
0.0277302
0.0277283
0.0277026
0.0280808
0.0280781
0.0280762
0.0280501
0.0284211
0.0284184
0.0284165
0.0283901
0.0287538
0.028751
0.0287491
0.0287223
0.0290787
0.0290759
0.0290739
0.0290468
0.0293957
0.0293929
0.0293909
0.0293635
0.0297047
0.0297019
0.0296999
0.0296721
0.0300056
0.0300028
0.0300007
0.0299727
0.0302984
0.0302955
0.0302935
0.0302652
0.0305829
0.03058
0.0305779
0.0305494
0.0308591
0.0308561
0.0308541
0.0308253
0.0311269
0.0311239
0.0311218
0.0310928
0.0313863
0.0313833
0.0313811
0.0313519
0.0316372
0.0316341
0.0316319
0.0316025
0.0318795
0.0318764
0.0318742
0.0318446
0.0321132
0.0321101
0.0321078
0.032078
0.0323382
0.0323352
0.0323328
0.0323028
0.0325546
0.0325516
0.0325491
0.032519
0.0327623
0.0327594
0.0327568
0.0327265
0.0329613
0.0329586
0.0329557
0.0329253
0.0331515
0.0331491
0.0331459
0.0331154
0.0333328
0.0333311
0.0333273
0.0332968
0.0335052
0.0335047
0.0334999
0.0334695
0.0336682
0.0336703
0.0336639
0.0336336
0.0338232
0.0338268
0.0338192
0.0337889
0.0339698
0.0339742
0.0339661
0.0339357
0.034108
0.0341129
0.0341045
0.0340739
0.0342377
0.0342428
0.0342344
0.0342036
0.034359
0.0343641
0.034356
0.0343248
0.034472
0.0344766
0.0344693
0.0344377
0.0345766
0.0345805
0.0345743
0.0345422
0.0346731
0.0346763
0.0346711
0.0346386
0.0347616
0.0347641
0.0347597
0.034727
0.0348421
0.0348443
0.0348404
0.0348073
0.0349148
0.034917
0.0349132
0.0348799
0.0349799
0.0349823
0.0349782
0.0349448
0.0350375
0.0350404
0.0350357
0.0350023
0.0350879
0.0350917
0.0350857
0.0350524
0.0351311
0.0351362
0.0351286
0.0350955
0.0351675
0.0351738
0.0351646
0.0351317
0.0351973
0.0352041
0.035194
0.0351612
0.0352206
0.0352277
0.0352171
0.0351844
0.0352378
0.0352451
0.0352342
0.0352014
0.0352491
0.0352565
0.0352455
0.0352126
0.0352549
0.0352624
0.0352515
0.0352183
0.0352557
0.0352629
0.0352524
0.035219
0.0352518
0.0352582
0.0352487
0.0352148
0.0352439
0.0352486
0.0352409
0.0352064
0.0352327
0.035235
0.0352295
0.035194
0.035219
0.035219
0.0352148
0.0351782
0.0352015
0.0352005
0.0351972
0.0351597
0.0351813
0.0351799
0.0351771
0.0351389
0.0351592
0.0351577
0.0351552
0.0351165
0.035136
0.0351343
0.0351321
0.0350931
0.0351125
0.0351105
0.0351085
0.0350695
0.0350894
0.035087
0.0350853
0.0350464
0.0350676
0.0350646
0.0350632
0.0350246
0.0350481
0.0350441
0.0350431
0.0350047
)
;

boundaryField
{
    inlet
    {
        type            cyclic;
    }
    outlet
    {
        type            cyclic;
    }
    fixedWalls-bottom
    {
        type            kqRWallFunction;
        value           nonuniform List<scalar> 4(5.34235e-06 5.34353e-06 5.3435e-06 5.34123e-06);
    }
    fixedWalls-top
    {
        type            symmetry;
    }
    frontAndBack
    {
        type            empty;
    }
}


// ************************************************************************* //
