/*--------------------------------*- C++ -*----------------------------------*\
  =========                 |
  \\      /  F ield         | OpenFOAM: The Open Source CFD Toolbox
   \\    /   O peration     | Website:  https://openfoam.org
    \\  /    A nd           | Version:  10
     \\/     M anipulation  |
\*---------------------------------------------------------------------------*/
FoamFile
{
    format      ascii;
    class       volScalarField;
    location    "2500";
    object      nut;
}
// * * * * * * * * * * * * * * * * * * * * * * * * * * * * * * * * * * * * * //

dimensions      [0 2 -1 0 0 0 0];

internalField   nonuniform List<scalar> 
400
(
2.06016e-09
2.06061e-09
2.0606e-09
2.05972e-09
3.55138e-07
3.55217e-07
3.55214e-07
3.55064e-07
6.64729e-06
6.64871e-06
6.64864e-06
6.64592e-06
3.6772e-05
3.67791e-05
3.67786e-05
3.67648e-05
9.96806e-05
9.96967e-05
9.9695e-05
9.96601e-05
0.000187606
0.00018763
0.000187626
0.000187561
0.00029457
0.000294598
0.000294589
0.00029448
0.000418744
0.000418772
0.000418751
0.000418582
0.000560079
0.000560099
0.00056006
0.000559812
0.000719084
0.000719089
0.000719028
0.000718672
0.000896316
0.000896293
0.000896205
0.000895713
0.00109214
0.00109208
0.00109196
0.00109131
0.00130665
0.00130657
0.00130642
0.00130557
0.00153968
0.0015396
0.00153941
0.00153835
0.00179088
0.00179077
0.00179054
0.00178924
0.0020596
0.00205948
0.00205922
0.00205765
0.00234507
0.00234496
0.00234469
0.00234282
0.00264645
0.00264633
0.00264605
0.00264389
0.00296279
0.00296265
0.00296237
0.00295994
0.00329315
0.00329297
0.00329267
0.00329
0.00363654
0.00363632
0.00363601
0.0036331
0.00399201
0.00399176
0.00399143
0.0039883
0.00435863
0.00435833
0.00435801
0.00435464
0.00473548
0.00473518
0.00473486
0.00473125
0.00512169
0.00512147
0.00512111
0.00511726
0.00551639
0.0055164
0.00551598
0.00551187
0.00591903
0.00591919
0.00591872
0.00591434
0.00632886
0.00632909
0.00632861
0.00632395
0.00674519
0.00674546
0.00674499
0.00674005
0.00716741
0.00716771
0.00716724
0.00716203
0.00759494
0.00759528
0.00759479
0.00758932
0.00802726
0.00802763
0.0080271
0.0080214
0.00846389
0.00846431
0.00846371
0.00845778
0.00890437
0.00890484
0.00890414
0.00889801
0.0093483
0.00934877
0.009348
0.00934167
0.0097953
0.00979568
0.00979489
0.00978837
0.0102451
0.0102451
0.0102445
0.0102377
0.0106973
0.0106969
0.0106964
0.0106894
0.0111514
0.0111507
0.0111503
0.0111431
0.0116072
0.0116063
0.011606
0.0115985
0.0120643
0.0120633
0.0120631
0.0120554
0.0125226
0.0125215
0.0125213
0.0125133
0.0129817
0.0129806
0.0129804
0.0129722
0.0134415
0.0134403
0.0134401
0.0134317
0.0139016
0.0139005
0.0139003
0.0138916
0.014362
0.0143608
0.0143606
0.0143516
0.0148222
0.014821
0.0148208
0.0148116
0.0152822
0.0152809
0.0152808
0.0152713
0.0157416
0.0157403
0.0157402
0.0157305
0.0162004
0.016199
0.0161989
0.0161889
0.0166582
0.0166568
0.0166566
0.0166464
0.0171148
0.0171133
0.0171132
0.0171027
0.01757
0.0175685
0.0175684
0.0175577
0.0180237
0.0180221
0.018022
0.0180111
0.0184755
0.0184739
0.0184738
0.0184627
0.0189253
0.0189237
0.0189236
0.0189122
0.0193729
0.0193712
0.0193711
0.0193595
0.0198179
0.0198163
0.0198161
0.0198043
0.0202603
0.0202586
0.0202584
0.0202463
0.0206997
0.020698
0.0206977
0.0206855
0.0211359
0.0211343
0.0211339
0.0211214
0.0215686
0.0215671
0.0215666
0.0215539
0.0219976
0.0219964
0.0219956
0.0219828
0.0224226
0.0224217
0.0224206
0.0224076
0.0228432
0.0228431
0.0228413
0.0228283
0.0232588
0.0232605
0.0232576
0.0232445
0.0236701
0.0236728
0.0236691
0.023656
0.0240764
0.0240799
0.0240756
0.0240623
0.0244776
0.0244814
0.0244769
0.0244633
0.024873
0.0248771
0.0248726
0.0248587
0.0252626
0.0252666
0.0252623
0.0252481
0.0256458
0.0256496
0.0256458
0.0256311
0.0260224
0.0260256
0.0260226
0.0260075
0.026392
0.0263947
0.0263924
0.0263769
0.0267542
0.0267565
0.0267549
0.026739
0.0271087
0.0271108
0.0271096
0.0270933
0.0274551
0.0274573
0.027456
0.0274395
0.0277931
0.0277954
0.0277939
0.0277772
0.028122
0.0281248
0.0281228
0.0281059
0.0284417
0.0284452
0.0284422
0.0284253
0.0287515
0.028756
0.0287517
0.0287348
0.029051
0.0290566
0.029051
0.0290341
0.0293398
0.0293459
0.0293395
0.0293226
0.0296173
0.0296236
0.0296167
0.0295998
0.029883
0.0298895
0.0298823
0.0298653
0.0301362
0.030143
0.0301356
0.0301184
0.0303766
0.0303835
0.0303761
0.0303586
0.0306036
0.0306103
0.0306033
0.0305854
0.0308167
0.0308227
0.0308165
0.0307982
0.0310153
0.0310199
0.0310152
0.0309963
0.0311992
0.0312017
0.0311989
0.0311791
0.0313679
0.0313683
0.0313668
0.0313459
0.0315191
0.0315187
0.0315179
0.0314962
0.0316527
0.0316519
0.0316515
0.0316292
0.0317679
0.0317669
0.031767
0.0317443
0.0318642
0.0318631
0.0318635
0.0318406
0.0319409
0.0319395
0.0319402
0.0319174
0.0319971
0.0319954
0.0319964
0.0319739
0.0320321
0.0320299
0.0320313
0.0320092
0.0320449
0.0320421
0.0320441
0.0320222
)
;

boundaryField
{
    inlet
    {
        type            cyclic;
    }
    outlet
    {
        type            cyclic;
    }
    fixedWalls-bottom
    {
        type            nutkWallFunction;
        Cmu             0.09;
        kappa           0.41;
        E               9.8;
        value           uniform 0;
    }
    fixedWalls-top
    {
        type            symmetry;
    }
    frontAndBack
    {
        type            empty;
    }
}


// ************************************************************************* //
