/*--------------------------------*- C++ -*----------------------------------*\
  =========                 |
  \\      /  F ield         | OpenFOAM: The Open Source CFD Toolbox
   \\    /   O peration     | Website:  https://openfoam.org
    \\  /    A nd           | Version:  10
     \\/     M anipulation  |
\*---------------------------------------------------------------------------*/
FoamFile
{
    format      ascii;
    class       volScalarField;
    location    "2500";
    object      omega;
}
// * * * * * * * * * * * * * * * * * * * * * * * * * * * * * * * * * * * * * //

dimensions      [0 0 -1 0 0 0 0];

internalField   nonuniform List<scalar> 
400
(
2593.18
2593.18
2593.18
2593.18
450.165
450.165
450.166
450.165
164.193
164.193
164.194
164.192
90.1223
90.1219
90.1221
90.1209
59.9812
59.9805
59.9805
59.9801
43.5316
43.5311
43.5311
43.5314
33.2032
33.2031
33.2033
33.204
26.2213
26.2216
26.2221
26.223
21.2681
21.2686
21.2693
21.2704
17.6278
17.6283
17.6291
17.6303
14.8782
14.8786
14.8794
14.8807
12.7551
12.7554
12.7561
12.7574
11.0852
11.0855
11.086
11.0872
9.75086
9.75104
9.75151
9.75253
8.66961
8.66972
8.67012
8.67095
7.78244
7.78251
7.78283
7.78348
7.04623
7.04628
7.04652
7.04699
6.42895
6.429
6.42915
6.42946
5.90645
5.9065
5.9066
5.90675
5.46031
5.46035
5.4604
5.46041
5.07627
5.0763
5.07631
5.07621
4.7432
4.74322
4.7432
4.743
4.45232
4.45234
4.45228
4.45201
4.19664
4.19665
4.19658
4.19623
3.97054
3.97055
3.97046
3.97006
3.76948
3.76947
3.76939
3.76894
3.58974
3.58972
3.58964
3.58915
3.42826
3.42824
3.42815
3.42763
3.28252
3.2825
3.28241
3.28186
3.15041
3.15039
3.15029
3.14972
3.03017
3.03015
3.03004
3.02945
2.9203
2.92027
2.92017
2.91956
2.81953
2.81951
2.8194
2.81878
2.7268
2.72678
2.72667
2.72604
2.64119
2.64117
2.64105
2.64042
2.5619
2.56187
2.56176
2.56112
2.48824
2.48822
2.4881
2.48746
2.41963
2.41961
2.41949
2.41885
2.35555
2.35553
2.35541
2.35477
2.29555
2.29553
2.29541
2.29477
2.23923
2.23921
2.23909
2.23846
2.18625
2.18623
2.18611
2.18548
2.1363
2.13628
2.13617
2.13554
2.08911
2.08909
2.08898
2.08836
2.04444
2.04442
2.04431
2.04369
2.00208
2.00206
2.00194
2.00133
1.96183
1.96181
1.9617
1.96109
1.92352
1.9235
1.92339
1.92279
1.88701
1.88699
1.88688
1.88629
1.85215
1.85213
1.85203
1.85144
1.81883
1.81881
1.8187
1.81812
1.78693
1.78691
1.7868
1.78623
1.75635
1.75633
1.75622
1.75566
1.727
1.72698
1.72688
1.72632
1.69881
1.69879
1.69868
1.69813
1.67168
1.67167
1.67156
1.67101
1.64557
1.64555
1.64545
1.64491
1.62041
1.62039
1.62029
1.61975
1.59614
1.59612
1.59602
1.59549
1.57271
1.57269
1.5726
1.57207
1.55008
1.55006
1.54997
1.54945
1.5282
1.52819
1.52809
1.52758
1.50705
1.50703
1.50693
1.50643
1.48657
1.48655
1.48646
1.48596
1.46675
1.46673
1.46664
1.46614
1.44755
1.44753
1.44744
1.44695
1.42894
1.42893
1.42884
1.42835
1.41092
1.4109
1.41081
1.41033
1.39344
1.39342
1.39333
1.39286
1.3765
1.37648
1.37639
1.37592
1.36008
1.36006
1.35997
1.3595
1.34416
1.34414
1.34405
1.34359
1.32873
1.32871
1.32862
1.32816
1.31378
1.31376
1.31367
1.31322
1.29929
1.29928
1.29919
1.29874
1.28527
1.28525
1.28517
1.28472
1.2717
1.27169
1.2716
1.27116
1.25858
1.25857
1.25848
1.25804
1.24591
1.24589
1.24581
1.24537
1.23368
1.23366
1.23358
1.23314
1.22189
1.22187
1.22179
1.22136
1.21054
1.21053
1.21045
1.21002
1.19964
1.19963
1.19955
1.19912
1.18919
1.18918
1.18909
1.18867
1.17919
1.17918
1.1791
1.17867
1.16966
1.16964
1.16956
1.16914
1.16059
1.16058
1.1605
1.16008
1.15201
1.15199
1.15192
1.15149
1.14392
1.1439
1.14383
1.14341
1.13634
1.13632
1.13625
1.13582
1.12928
1.12927
1.12919
1.12877
1.12277
1.12276
1.12268
1.12226
1.11683
1.11681
1.11674
1.11631
1.11148
1.11147
1.11139
1.11096
1.10675
1.10674
1.10666
1.10623
1.10268
1.10266
1.10258
1.10215
1.0993
1.09928
1.0992
1.09876
1.09664
1.09663
1.09654
1.09609
1.09477
1.09475
1.09465
1.09421
1.09372
1.09369
1.09359
1.09314
)
;

boundaryField
{
    inlet
    {
        type            cyclic;
    }
    outlet
    {
        type            cyclic;
    }
    fixedWalls-bottom
    {
        beta1           0.075;
        blended         0;
        type            omegaWallFunction;
        value           uniform 2593.18;
    }
    fixedWalls-top
    {
        type            symmetry;
    }
    frontAndBack
    {
        type            empty;
    }
}


// ************************************************************************* //
