/*--------------------------------*- C++ -*----------------------------------*\
  =========                 |
  \\      /  F ield         | OpenFOAM: The Open Source CFD Toolbox
   \\    /   O peration     | Website:  https://openfoam.org
    \\  /    A nd           | Version:  10
     \\/     M anipulation  |
\*---------------------------------------------------------------------------*/
FoamFile
{
    format      ascii;
    class       volSymmTensorField;
    location    "2500";
    object      R;
}
// * * * * * * * * * * * * * * * * * * * * * * * * * * * * * * * * * * * * * //

dimensions      [0 2 -2 0 0 0 0];

internalField   nonuniform List<symmTensor> 
400
(
(3.56157e-06 -5.92889e-08 -0 3.56157e-06 -0 3.56157e-06)
(3.56236e-06 -5.93042e-08 -0 3.56236e-06 -0 3.56236e-06)
(3.56233e-06 -5.93052e-08 -0 3.56233e-06 -0 3.56233e-06)
(3.56082e-06 -5.92754e-08 -0 3.56082e-06 -0 3.56082e-06)
(0.000106581 -1.00583e-05 -0 0.000106581 -0 0.000106581)
(0.000106604 -1.00609e-05 -0 0.000106604 -0 0.000106604)
(0.000106603 -1.0061e-05 -0 0.000106603 -0 0.000106603)
(0.000106558 -1.00559e-05 -0 0.000106558 -0 0.000106558)
(0.000727627 -0.000176632 -0 0.000727627 -0 0.000727627)
(0.000727783 -0.000176675 -0 0.000727783 -0 0.000727783)
(0.000727778 -0.000176674 -0 0.000727777 -0 0.000727777)
(0.000727473 -0.00017659 -0 0.000727473 -0 0.000727473)
(0.00220932 -0.000833754 -0 0.00220932 -0 0.00220932)
(0.00220973 -0.000833923 -0 0.00220974 -0 0.00220974)
(0.00220971 -0.000833909 -0 0.00220971 -0 0.00220971)
(0.00220885 -0.00083356 -0 0.00220885 -0 0.00220885)
(0.00398597 -0.00176452 -0 0.00398598 -0 0.00398598)
(0.00398657 -0.00176478 -0 0.00398658 -0 0.00398657)
(0.00398651 -0.00176473 -0 0.0039865 -0 0.0039865)
(0.00398509 -0.00176409 -0 0.00398508 -0 0.00398508)
(0.00544452 -0.00251215 -0 0.00544454 -0 0.00544453)
(0.00544516 -0.0025124 -0 0.00544518 -0 0.00544517)
(0.00544506 -0.00251229 -0 0.00544504 -0 0.00544505)
(0.00544318 -0.00251144 -0 0.00544317 -0 0.00544318)
(0.00652042 -0.00301746 -0 0.00652045 -0 0.00652044)
(0.00652105 -0.00301764 -0 0.00652106 -0 0.00652105)
(0.0065209 -0.00301748 -0 0.00652087 -0 0.00652088)
(0.00651861 -0.00301645 -0 0.00651859 -0 0.0065186)
(0.00731999 -0.0033541 -0 0.00732004 -0 0.00732002)
(0.00732057 -0.00335419 -0 0.00732059 -0 0.00732058)
(0.00732038 -0.00335395 -0 0.00732033 -0 0.00732035)
(0.00731766 -0.00335277 -0 0.00731765 -0 0.00731765)
(0.0079412 -0.00358124 -0 0.00794126 -0 0.00794123)
(0.00794167 -0.00358122 -0 0.00794169 -0 0.00794168)
(0.00794143 -0.00358092 -0 0.00794137 -0 0.0079414)
(0.00793828 -0.00357959 -0 0.00793826 -0 0.00793827)
(0.00845056 -0.0037354 -0 0.00845064 -0 0.0084506)
(0.00845087 -0.00373528 -0 0.00845089 -0 0.00845088)
(0.00845057 -0.00373493 -0 0.00845049 -0 0.00845053)
(0.00844694 -0.00373346 -0 0.00844692 -0 0.00844693)
(0.00889036 -0.00383902 -0 0.00889045 -0 0.00889041)
(0.0088904 -0.00383878 -0 0.00889042 -0 0.00889041)
(0.00889002 -0.00383838 -0 0.00888993 -0 0.00888997)
(0.00888588 -0.00383677 -0 0.00888586 -0 0.00888587)
(0.00928683 -0.00390634 -0 0.00928692 -0 0.00928688)
(0.00928664 -0.003906 -0 0.00928666 -0 0.00928665)
(0.00928616 -0.00390556 -0 0.00928607 -0 0.00928611)
(0.00928149 -0.00390382 -0 0.00928147 -0 0.00928148)
(0.00965627 -0.00394686 -0 0.00965636 -0 0.00965632)
(0.00965596 -0.00394648 -0 0.00965599 -0 0.00965597)
(0.00965536 -0.003946 -0 0.00965527 -0 0.00965532)
(0.00965012 -0.00394414 -0 0.0096501 -0 0.00965011)
(0.0100087 -0.00396718 -0 0.0100088 -0 0.0100088)
(0.0100085 -0.00396686 -0 0.0100085 -0 0.0100085)
(0.0100077 -0.00396632 -0 0.0100077 -0 0.0100077)
(0.0100019 -0.00396436 -0 0.0100019 -0 0.0100019)
(0.0103508 -0.00397226 -0 0.0103509 -0 0.0103508)
(0.0103503 -0.00397185 -0 0.0103503 -0 0.0103503)
(0.0103495 -0.0039713 -0 0.0103494 -0 0.0103495)
(0.010343 -0.00396922 -0 0.010343 -0 0.010343)
(0.0106858 -0.00396541 -0 0.0106858 -0 0.0106858)
(0.0106853 -0.00396493 -0 0.0106853 -0 0.0106853)
(0.0106844 -0.00396444 -0 0.0106843 -0 0.0106844)
(0.0106771 -0.00396221 -0 0.0106771 -0 0.0106771)
(0.0110159 -0.00394926 -0 0.011016 -0 0.0110159)
(0.0110155 -0.00394872 -0 0.0110155 -0 0.0110155)
(0.0110146 -0.00394834 -0 0.0110146 -0 0.0110146)
(0.0110065 -0.00394597 -0 0.0110065 -0 0.0110065)
(0.0113426 -0.00392582 -0 0.0113426 -0 0.0113426)
(0.0113422 -0.00392528 -0 0.0113422 -0 0.0113422)
(0.0113413 -0.00392495 -0 0.0113412 -0 0.0113413)
(0.0113325 -0.0039225 -0 0.0113325 -0 0.0113325)
(0.0116664 -0.00389667 -0 0.0116664 -0 0.0116664)
(0.011666 -0.00389615 -0 0.011666 -0 0.011666)
(0.011665 -0.00389582 -0 0.011665 -0 0.011665)
(0.0116557 -0.00389335 -0 0.0116557 -0 0.0116557)
(0.0119877 -0.00386303 -0 0.0119878 -0 0.0119877)
(0.0119872 -0.00386254 -0 0.0119872 -0 0.0119872)
(0.0119862 -0.00386218 -0 0.0119862 -0 0.0119862)
(0.0119765 -0.00385973 -0 0.0119765 -0 0.0119765)
(0.0123067 -0.00382585 -0 0.0123067 -0 0.0123067)
(0.0123061 -0.0038254 -0 0.012306 -0 0.012306)
(0.012305 -0.003825 -0 0.012305 -0 0.012305)
(0.0122949 -0.00382258 -0 0.0122949 -0 0.0122949)
(0.0126233 -0.00378589 -0 0.0126233 -0 0.0126233)
(0.0126225 -0.00378547 -0 0.0126225 -0 0.0126225)
(0.0126214 -0.00378506 -0 0.0126214 -0 0.0126214)
(0.012611 -0.00378266 -0 0.012611 -0 0.012611)
(0.0129373 -0.00374374 -0 0.0129373 -0 0.0129373)
(0.0129365 -0.00374337 -0 0.0129365 -0 0.0129365)
(0.0129354 -0.00374297 -0 0.0129354 -0 0.0129354)
(0.0129246 -0.00374056 -0 0.0129246 -0 0.0129246)
(0.0132487 -0.00369989 -0 0.0132487 -0 0.0132487)
(0.013248 -0.00369959 -0 0.0132479 -0 0.0132479)
(0.0132468 -0.00369918 -0 0.0132468 -0 0.0132468)
(0.0132356 -0.00369679 -0 0.0132356 -0 0.0132356)
(0.0135573 -0.00365469 -0 0.0135572 -0 0.0135572)
(0.0135567 -0.00365453 -0 0.0135567 -0 0.0135567)
(0.0135554 -0.00365411 -0 0.0135555 -0 0.0135555)
(0.0135439 -0.00365172 -0 0.0135439 -0 0.0135439)
(0.0138626 -0.00360844 -0 0.0138626 -0 0.0138626)
(0.0138626 -0.00360849 -0 0.0138626 -0 0.0138626)
(0.0138612 -0.00360807 -0 0.0138613 -0 0.0138613)
(0.0138492 -0.00360569 -0 0.0138493 -0 0.0138493)
(0.0141652 -0.00356158 -0 0.0141651 -0 0.0141652)
(0.0141655 -0.00356173 -0 0.0141655 -0 0.0141655)
(0.014164 -0.00356133 -0 0.0141641 -0 0.014164)
(0.0141516 -0.00355896 -0 0.0141517 -0 0.0141516)
(0.0144647 -0.00351427 -0 0.0144646 -0 0.0144646)
(0.0144652 -0.00351444 -0 0.0144651 -0 0.0144651)
(0.0144636 -0.00351409 -0 0.0144637 -0 0.0144636)
(0.0144507 -0.00351173 -0 0.0144508 -0 0.0144508)
(0.0147609 -0.00346667 -0 0.0147608 -0 0.0147608)
(0.0147614 -0.00346684 -0 0.0147613 -0 0.0147613)
(0.0147598 -0.00346654 -0 0.0147599 -0 0.0147599)
(0.0147465 -0.00346418 -0 0.0147466 -0 0.0147466)
(0.0150536 -0.0034189 -0 0.0150535 -0 0.0150535)
(0.0150541 -0.00341907 -0 0.015054 -0 0.0150541)
(0.0150526 -0.0034188 -0 0.0150526 -0 0.0150526)
(0.0150389 -0.00341646 -0 0.015039 -0 0.0150389)
(0.0153427 -0.00337107 -0 0.0153426 -0 0.0153426)
(0.0153432 -0.00337126 -0 0.0153432 -0 0.0153432)
(0.0153416 -0.00337101 -0 0.0153417 -0 0.0153417)
(0.0153276 -0.00336869 -0 0.0153277 -0 0.0153276)
(0.015628 -0.00332328 -0 0.0156279 -0 0.015628)
(0.0156286 -0.0033235 -0 0.0156285 -0 0.0156286)
(0.0156269 -0.00332325 -0 0.015627 -0 0.015627)
(0.0156126 -0.00332095 -0 0.0156127 -0 0.0156126)
(0.0159095 -0.00327561 -0 0.0159094 -0 0.0159095)
(0.0159102 -0.00327586 -0 0.0159101 -0 0.0159101)
(0.0159083 -0.00327559 -0 0.0159084 -0 0.0159084)
(0.0158937 -0.00327333 -0 0.0158938 -0 0.0158938)
(0.016187 -0.00322811 -0 0.0161869 -0 0.016187)
(0.0161877 -0.0032284 -0 0.0161876 -0 0.0161877)
(0.0161857 -0.00322811 -0 0.0161858 -0 0.0161858)
(0.0161709 -0.00322589 -0 0.016171 -0 0.0161709)
(0.0164605 -0.00318084 -0 0.0164604 -0 0.0164604)
(0.0164612 -0.00318117 -0 0.016461 -0 0.0164611)
(0.016459 -0.00318086 -0 0.0164591 -0 0.016459)
(0.0164439 -0.00317868 -0 0.016444 -0 0.016444)
(0.0167297 -0.00313386 -0 0.0167296 -0 0.0167297)
(0.0167302 -0.00313418 -0 0.0167301 -0 0.0167302)
(0.016728 -0.00313387 -0 0.0167281 -0 0.0167281)
(0.0167127 -0.00313173 -0 0.0167128 -0 0.0167128)
(0.0169948 -0.00308721 -0 0.0169947 -0 0.0169948)
(0.0169948 -0.00308745 -0 0.0169947 -0 0.0169948)
(0.0169928 -0.00308718 -0 0.0169929 -0 0.0169928)
(0.0169773 -0.00308507 -0 0.0169774 -0 0.0169773)
(0.0172558 -0.00304093 -0 0.0172557 -0 0.0172557)
(0.0172549 -0.00304099 -0 0.0172548 -0 0.0172548)
(0.0172532 -0.0030408 -0 0.0172533 -0 0.0172532)
(0.0172374 -0.00303873 -0 0.0172375 -0 0.0172374)
(0.0175119 -0.00299492 -0 0.0175118 -0 0.0175119)
(0.0175106 -0.00299489 -0 0.0175105 -0 0.0175105)
(0.017509 -0.00299474 -0 0.0175091 -0 0.0175091)
(0.017493 -0.00299271 -0 0.0174931 -0 0.017493)
(0.0177633 -0.0029492 -0 0.0177632 -0 0.0177633)
(0.0177618 -0.00294913 -0 0.0177616 -0 0.0177617)
(0.0177603 -0.00294902 -0 0.0177604 -0 0.0177603)
(0.017744 -0.00294703 -0 0.0177441 -0 0.017744)
(0.0180099 -0.0029038 -0 0.0180098 -0 0.0180099)
(0.0180083 -0.00290372 -0 0.0180081 -0 0.0180082)
(0.0180068 -0.00290364 -0 0.0180069 -0 0.0180069)
(0.0179902 -0.00290169 -0 0.0179903 -0 0.0179903)
(0.0182517 -0.00285874 -0 0.0182516 -0 0.0182517)
(0.01825 -0.00285866 -0 0.0182499 -0 0.0182499)
(0.0182486 -0.00285859 -0 0.0182487 -0 0.0182486)
(0.0182317 -0.00285668 -0 0.0182318 -0 0.0182318)
(0.0184886 -0.00281401 -0 0.0184885 -0 0.0184886)
(0.0184869 -0.00281393 -0 0.0184867 -0 0.0184868)
(0.0184855 -0.00281387 -0 0.0184856 -0 0.0184855)
(0.0184684 -0.002812 -0 0.0184685 -0 0.0184684)
(0.0187206 -0.0027696 -0 0.0187205 -0 0.0187205)
(0.0187188 -0.00276952 -0 0.0187187 -0 0.0187187)
(0.0187174 -0.00276947 -0 0.0187175 -0 0.0187174)
(0.0187 -0.00276763 -0 0.0187001 -0 0.0187001)
(0.0189475 -0.00272549 -0 0.0189473 -0 0.0189474)
(0.0189457 -0.00272542 -0 0.0189455 -0 0.0189456)
(0.0189442 -0.00272538 -0 0.0189444 -0 0.0189443)
(0.0189266 -0.00272357 -0 0.0189268 -0 0.0189267)
(0.0191693 -0.00268168 -0 0.0191691 -0 0.0191692)
(0.0191674 -0.00268161 -0 0.0191673 -0 0.0191674)
(0.019166 -0.00268158 -0 0.0191661 -0 0.0191661)
(0.0191482 -0.0026798 -0 0.0191483 -0 0.0191482)
(0.0193858 -0.00263813 -0 0.0193857 -0 0.0193858)
(0.019384 -0.00263807 -0 0.0193839 -0 0.0193839)
(0.0193826 -0.00263804 -0 0.0193827 -0 0.0193826)
(0.0193645 -0.00263629 -0 0.0193646 -0 0.0193646)
(0.0195972 -0.00259484 -0 0.019597 -0 0.0195971)
(0.0195953 -0.00259478 -0 0.0195952 -0 0.0195952)
(0.0195938 -0.00259475 -0 0.019594 -0 0.0195939)
(0.0195756 -0.00259304 -0 0.0195757 -0 0.0195757)
(0.0198032 -0.00255177 -0 0.019803 -0 0.0198031)
(0.0198013 -0.00255172 -0 0.0198012 -0 0.0198012)
(0.0197998 -0.00255169 -0 0.0198 -0 0.0197999)
(0.0197814 -0.00255001 -0 0.0197815 -0 0.0197814)
(0.0200038 -0.00250891 -0 0.0200037 -0 0.0200037)
(0.0200019 -0.00250885 -0 0.0200018 -0 0.0200018)
(0.0200004 -0.00250883 -0 0.0200006 -0 0.0200005)
(0.0199818 -0.00250718 -0 0.0199819 -0 0.0199818)
(0.020199 -0.00246622 -0 0.0201988 -0 0.0201989)
(0.020197 -0.00246617 -0 0.0201969 -0 0.020197)
(0.0201956 -0.00246614 -0 0.0201957 -0 0.0201956)
(0.0201767 -0.00246452 -0 0.0201768 -0 0.0201768)
(0.0203887 -0.00242367 -0 0.0203885 -0 0.0203886)
(0.0203867 -0.00242362 -0 0.0203866 -0 0.0203867)
(0.0203852 -0.0024236 -0 0.0203854 -0 0.0203853)
(0.0203662 -0.00242202 -0 0.0203663 -0 0.0203663)
(0.0205728 -0.00238125 -0 0.0205727 -0 0.0205727)
(0.0205708 -0.0023812 -0 0.0205707 -0 0.0205708)
(0.0205693 -0.00238118 -0 0.0205695 -0 0.0205694)
(0.0205502 -0.00237963 -0 0.0205503 -0 0.0205502)
(0.0207514 -0.00233891 -0 0.0207512 -0 0.0207513)
(0.0207493 -0.00233887 -0 0.0207492 -0 0.0207493)
(0.0207478 -0.00233884 -0 0.020748 -0 0.0207479)
(0.0207285 -0.00233732 -0 0.0207286 -0 0.0207286)
(0.0209243 -0.00229663 -0 0.0209241 -0 0.0209242)
(0.0209222 -0.00229659 -0 0.0209221 -0 0.0209222)
(0.0209207 -0.00229656 -0 0.0209208 -0 0.0209208)
(0.0209012 -0.00229507 -0 0.0209013 -0 0.0209013)
(0.0210915 -0.00225438 -0 0.0210914 -0 0.0210914)
(0.0210894 -0.00225433 -0 0.0210894 -0 0.0210894)
(0.0210879 -0.00225431 -0 0.021088 -0 0.021088)
(0.0210683 -0.00225285 -0 0.0210684 -0 0.0210683)
(0.0212531 -0.00221211 -0 0.0212529 -0 0.021253)
(0.021251 -0.00221207 -0 0.0212509 -0 0.0212509)
(0.0212494 -0.00221204 -0 0.0212495 -0 0.0212495)
(0.0212297 -0.00221061 -0 0.0212298 -0 0.0212297)
(0.0214089 -0.0021698 -0 0.0214087 -0 0.0214088)
(0.0214068 -0.00216976 -0 0.0214067 -0 0.0214067)
(0.0214051 -0.00216973 -0 0.0214053 -0 0.0214052)
(0.0213853 -0.00216833 -0 0.0213854 -0 0.0213853)
(0.0215589 -0.00212741 -0 0.0215587 -0 0.0215588)
(0.0215568 -0.00212737 -0 0.0215567 -0 0.0215568)
(0.0215551 -0.00212734 -0 0.0215553 -0 0.0215552)
(0.0215352 -0.00212597 -0 0.0215353 -0 0.0215352)
(0.0217032 -0.00208491 -0 0.021703 -0 0.0217031)
(0.0217011 -0.00208487 -0 0.021701 -0 0.0217011)
(0.0216993 -0.00208483 -0 0.0216995 -0 0.0216994)
(0.0216793 -0.0020835 -0 0.0216794 -0 0.0216793)
(0.0218417 -0.00204225 -0 0.0218415 -0 0.0218416)
(0.0218397 -0.00204222 -0 0.0218396 -0 0.0218396)
(0.0218378 -0.00204218 -0 0.021838 -0 0.0218379)
(0.0218176 -0.00204087 -0 0.0218177 -0 0.0218177)
(0.0219743 -0.00199941 -0 0.0219741 -0 0.0219742)
(0.0219724 -0.00199939 -0 0.0219724 -0 0.0219724)
(0.0219704 -0.00199933 -0 0.0219706 -0 0.0219705)
(0.0219502 -0.00199806 -0 0.0219502 -0 0.0219502)
(0.0221011 -0.00195633 -0 0.0221009 -0 0.022101)
(0.0220995 -0.00195633 -0 0.0220994 -0 0.0220994)
(0.0220972 -0.00195626 -0 0.0220974 -0 0.0220973)
(0.0220769 -0.00195501 -0 0.022077 -0 0.0220769)
(0.022222 -0.00191298 -0 0.0222218 -0 0.0222219)
(0.0222208 -0.00191303 -0 0.0222207 -0 0.0222207)
(0.0222181 -0.00191292 -0 0.0222183 -0 0.0222182)
(0.0221978 -0.00191171 -0 0.0221979 -0 0.0221979)
(0.0223369 -0.0018693 -0 0.0223367 -0 0.0223368)
(0.0223365 -0.00186944 -0 0.0223364 -0 0.0223365)
(0.0223332 -0.00186927 -0 0.0223334 -0 0.0223333)
(0.022313 -0.0018681 -0 0.022313 -0 0.022313)
(0.0224456 -0.00182524 -0 0.0224454 -0 0.0224455)
(0.0224469 -0.00182555 -0 0.0224468 -0 0.0224469)
(0.0224425 -0.00182527 -0 0.0224427 -0 0.0224426)
(0.0224223 -0.00182414 -0 0.0224224 -0 0.0224224)
(0.0225489 -0.00178084 -0 0.0225487 -0 0.0225488)
(0.0225512 -0.00178123 -0 0.0225511 -0 0.0225512)
(0.0225461 -0.0017809 -0 0.0225463 -0 0.0225462)
(0.0225259 -0.0017798 -0 0.022526 -0 0.022526)
(0.0226467 -0.00173604 -0 0.0226465 -0 0.0226466)
(0.0226495 -0.00173645 -0 0.0226495 -0 0.0226495)
(0.022644 -0.0017361 -0 0.0226442 -0 0.0226441)
(0.0226238 -0.00173504 -0 0.0226238 -0 0.0226238)
(0.0227388 -0.00169079 -0 0.0227386 -0 0.0227387)
(0.0227419 -0.0016912 -0 0.0227419 -0 0.0227419)
(0.0227362 -0.00169084 -0 0.0227364 -0 0.0227363)
(0.0227159 -0.00168981 -0 0.022716 -0 0.0227159)
(0.0228253 -0.00164503 -0 0.0228251 -0 0.0228252)
(0.0228286 -0.00164542 -0 0.0228285 -0 0.0228286)
(0.0228229 -0.00164508 -0 0.0228231 -0 0.022823)
(0.0228024 -0.00164408 -0 0.0228024 -0 0.0228024)
(0.0229061 -0.00159872 -0 0.0229059 -0 0.022906)
(0.0229094 -0.00159909 -0 0.0229094 -0 0.0229094)
(0.0229039 -0.00159878 -0 0.0229041 -0 0.022904)
(0.0228832 -0.00159779 -0 0.0228832 -0 0.0228832)
(0.0229814 -0.00155182 -0 0.0229812 -0 0.0229813)
(0.0229844 -0.00155215 -0 0.0229844 -0 0.0229844)
(0.0229794 -0.00155189 -0 0.0229796 -0 0.0229795)
(0.0229584 -0.00155092 -0 0.0229585 -0 0.0229584)
(0.0230512 -0.00150428 -0 0.023051 -0 0.0230511)
(0.0230537 -0.00150456 -0 0.0230537 -0 0.0230537)
(0.0230494 -0.00150436 -0 0.0230496 -0 0.0230495)
(0.0230281 -0.00150341 -0 0.0230282 -0 0.0230282)
(0.0231155 -0.00145607 -0 0.0231153 -0 0.0231154)
(0.0231175 -0.0014563 -0 0.0231175 -0 0.0231175)
(0.0231139 -0.00145615 -0 0.0231141 -0 0.023114)
(0.0230924 -0.00145522 -0 0.0230924 -0 0.0230924)
(0.0231745 -0.00140714 -0 0.0231743 -0 0.0231744)
(0.0231761 -0.00140733 -0 0.023176 -0 0.0231761)
(0.0231731 -0.00140722 -0 0.0231733 -0 0.0231732)
(0.0231513 -0.00140631 -0 0.0231513 -0 0.0231513)
(0.0232282 -0.00135743 -0 0.0232279 -0 0.023228)
(0.0232296 -0.0013576 -0 0.0232295 -0 0.0232295)
(0.0232268 -0.00135752 -0 0.023227 -0 0.0232269)
(0.0232049 -0.00135664 -0 0.0232049 -0 0.0232049)
(0.0232766 -0.00130692 -0 0.0232764 -0 0.0232765)
(0.023278 -0.00130708 -0 0.023278 -0 0.023278)
(0.0232753 -0.00130701 -0 0.0232756 -0 0.0232755)
(0.0232533 -0.00130615 -0 0.0232533 -0 0.0232533)
(0.02332 -0.00125554 -0 0.0233198 -0 0.0233199)
(0.0233216 -0.00125572 -0 0.0233215 -0 0.0233215)
(0.0233187 -0.00125563 -0 0.0233189 -0 0.0233188)
(0.0232966 -0.0012548 -0 0.0232966 -0 0.0232966)
(0.0233584 -0.00120327 -0 0.0233582 -0 0.0233583)
(0.0233603 -0.00120345 -0 0.0233603 -0 0.0233603)
(0.023357 -0.00120335 -0 0.0233572 -0 0.0233571)
(0.0233349 -0.00120255 -0 0.0233349 -0 0.0233349)
(0.023392 -0.00115004 -0 0.0233918 -0 0.0233919)
(0.0233945 -0.00115025 -0 0.0233945 -0 0.0233945)
(0.0233904 -0.00115011 -0 0.0233906 -0 0.0233905)
(0.0233683 -0.00114935 -0 0.0233683 -0 0.0233683)
(0.0234209 -0.0010958 -0 0.0234206 -0 0.0234208)
(0.0234241 -0.00109606 -0 0.0234241 -0 0.0234241)
(0.023419 -0.00109586 -0 0.0234192 -0 0.0234191)
(0.023397 -0.00109515 -0 0.023397 -0 0.023397)
(0.0234451 -0.00104052 -0 0.0234449 -0 0.023445)
(0.0234492 -0.00104081 -0 0.0234492 -0 0.0234492)
(0.023443 -0.00104058 -0 0.0234432 -0 0.0234431)
(0.0234211 -0.0010399 -0 0.0234211 -0 0.0234211)
(0.023465 -0.000984147 -0 0.0234648 -0 0.0234649)
(0.0234694 -0.00098445 -0 0.0234694 -0 0.0234694)
(0.0234626 -0.000984191 -0 0.0234628 -0 0.0234627)
(0.0234408 -0.000983552 -0 0.0234408 -0 0.0234408)
(0.0234805 -0.000926624 -0 0.0234803 -0 0.0234804)
(0.0234851 -0.000926926 -0 0.0234851 -0 0.0234851)
(0.023478 -0.000926662 -0 0.0234782 -0 0.0234781)
(0.0234562 -0.000926062 -0 0.0234562 -0 0.0234562)
(0.023492 -0.000867909 -0 0.0234918 -0 0.0234919)
(0.0234967 -0.000868193 -0 0.0234967 -0 0.0234967)
(0.0234893 -0.000867935 -0 0.0234895 -0 0.0234894)
(0.0234676 -0.000867377 -0 0.0234676 -0 0.0234676)
(0.0234995 -0.000807951 -0 0.0234993 -0 0.0234994)
(0.0235044 -0.000808206 -0 0.0235044 -0 0.0235044)
(0.0234969 -0.000807962 -0 0.0234971 -0 0.023497)
(0.0234751 -0.000807445 -0 0.0234751 -0 0.0234751)
(0.0235034 -0.000746694 -0 0.0235032 -0 0.0235033)
(0.0235083 -0.000746916 -0 0.0235083 -0 0.0235083)
(0.0235009 -0.000746692 -0 0.0235011 -0 0.023501)
(0.0234789 -0.000746214 -0 0.0234789 -0 0.0234789)
(0.0235039 -0.000684083 -0 0.0235037 -0 0.0235038)
(0.0235086 -0.000684276 -0 0.0235086 -0 0.0235086)
(0.0235015 -0.000684073 -0 0.0235017 -0 0.0235016)
(0.0234793 -0.000683633 -0 0.0234793 -0 0.0234793)
(0.0235013 -0.000620068 -0 0.0235011 -0 0.0235012)
(0.0235055 -0.000620227 -0 0.0235055 -0 0.0235055)
(0.023499 -0.000620055 -0 0.0234992 -0 0.0234991)
(0.0234765 -0.000619646 -0 0.0234765 -0 0.0234765)
(0.0234961 -0.000554595 -0 0.0234958 -0 0.023496)
(0.023499 -0.000554708 -0 0.023499 -0 0.023499)
(0.0234938 -0.000554579 -0 0.023494 -0 0.0234939)
(0.0234709 -0.000554199 -0 0.0234709 -0 0.0234709)
(0.0234885 -0.000487613 -0 0.0234883 -0 0.0234884)
(0.02349 -0.000487668 -0 0.02349 -0 0.02349)
(0.0234862 -0.000487586 -0 0.0234864 -0 0.0234863)
(0.0234627 -0.000487234 -0 0.0234627 -0 0.0234627)
(0.0234794 -0.000419061 -0 0.0234792 -0 0.0234793)
(0.0234793 -0.000419059 -0 0.0234793 -0 0.0234793)
(0.0234765 -0.000419009 -0 0.0234767 -0 0.0234766)
(0.0234522 -0.000418689 -0 0.0234522 -0 0.0234522)
(0.0234678 -0.000348841 -0 0.0234676 -0 0.0234677)
(0.023467 -0.000348812 -0 0.023467 -0 0.023467)
(0.0234647 -0.000348776 -0 0.0234649 -0 0.0234648)
(0.0234398 -0.000348496 -0 0.0234398 -0 0.0234398)
(0.0234543 -0.000276883 -0 0.0234541 -0 0.0234542)
(0.0234533 -0.000276842 -0 0.0234533 -0 0.0234533)
(0.0234513 -0.000276807 -0 0.0234515 -0 0.0234514)
(0.0234259 -0.000276575 -0 0.0234259 -0 0.0234259)
(0.0234396 -0.000203103 -0 0.0234394 -0 0.0234395)
(0.0234384 -0.000203049 -0 0.0234384 -0 0.0234384)
(0.0234367 -0.000203012 -0 0.0234369 -0 0.0234368)
(0.023411 -0.000202835 -0 0.023411 -0 0.023411)
(0.0234241 -0.000127386 -0 0.0234239 -0 0.023424)
(0.0234229 -0.000127319 -0 0.0234228 -0 0.0234229)
(0.0234213 -0.000127279 -0 0.0234215 -0 0.0234214)
(0.0233954 -0.000127161 -0 0.0233954 -0 0.0233954)
(0.0234084 -4.95963e-05 -0 0.0234082 -0 0.0234083)
(0.023407 -4.95197e-05 -0 0.023407 -0 0.023407)
(0.0234056 -4.94775e-05 -0 0.0234058 -0 0.0234057)
(0.0233797 -4.94212e-05 -0 0.0233797 -0 0.0233797)
(0.023393 3.0395e-05 -0 0.0233928 -0 0.0233929)
(0.0233914 3.0471e-05 -0 0.0233913 -0 0.0233913)
(0.0233901 3.05127e-05 -0 0.0233903 -0 0.0233902)
(0.0233643 3.05066e-05 -0 0.0233643 -0 0.0233643)
(0.0233785 0.00011279 -0 0.0233783 -0 0.0233784)
(0.0233764 0.00011284 -0 0.0233764 -0 0.0233764)
(0.0233753 0.000112875 -0 0.0233755 -0 0.0233754)
(0.0233497 0.000112807 -0 0.0233498 -0 0.0233497)
(0.0233655 7.72834e-05 -0 0.0233653 -0 0.0233654)
(0.0233628 7.7296e-05 -0 0.0233627 -0 0.0233628)
(0.023362 7.73117e-05 -0 0.0233622 -0 0.0233621)
(0.0233365 7.7263e-05 -0 0.0233365 -0 0.0233365)
)
;

boundaryField
{
    inlet
    {
        type            cyclic;
    }
    outlet
    {
        type            cyclic;
    }
    fixedWalls-bottom
    {
        type            kqRWallFunction;
        value           nonuniform List<symmTensor> 4((3.56157e-06 -0 -0 3.56157e-06 -0 3.56157e-06) (3.56236e-06 -0 -0 3.56236e-06 -0 3.56236e-06) (3.56233e-06 -0 -0 3.56233e-06 -0 3.56233e-06) (3.56082e-06 -0 -0 3.56082e-06 -0 3.56082e-06));
    }
    fixedWalls-top
    {
        type            symmetry;
    }
    frontAndBack
    {
        type            empty;
    }
}


// ************************************************************************* //
