/*--------------------------------*- C++ -*----------------------------------*\
  =========                 |
  \\      /  F ield         | OpenFOAM: The Open Source CFD Toolbox
   \\    /   O peration     | Website:  https://openfoam.org
    \\  /    A nd           | Version:  10
     \\/     M anipulation  |
\*---------------------------------------------------------------------------*/
FoamFile
{
    format      ascii;
    class       volScalarField;
    location    "612";
    object      k;
}
// * * * * * * * * * * * * * * * * * * * * * * * * * * * * * * * * * * * * * //

dimensions      [0 2 -2 0 0 0 0];

internalField   nonuniform List<scalar> 
200
(
0.000198998
0.000198997
0.000198994
0.000198991
0.00375426
0.00375424
0.0037542
0.00375416
0.00612544
0.00612543
0.00612537
0.00612533
0.00688401
0.006884
0.00688394
0.0068839
0.00716256
0.00716256
0.0071625
0.00716246
0.00727151
0.0072715
0.00727146
0.00727142
0.00730381
0.00730381
0.00730379
0.00730375
0.00729285
0.00729285
0.00729283
0.0072928
0.00725478
0.00725478
0.00725477
0.00725475
0.00719832
0.00719832
0.00719831
0.0071983
0.00712851
0.00712851
0.00712851
0.00712851
0.00704852
0.00704851
0.00704852
0.00704852
0.00696038
0.00696037
0.00696038
0.00696038
0.00686547
0.00686545
0.00686547
0.00686547
0.00676476
0.00676474
0.00676476
0.00676476
0.00665895
0.00665893
0.00665895
0.00665895
0.00654857
0.00654854
0.00654857
0.00654857
0.00643401
0.00643398
0.00643401
0.006434
0.0063156
0.00631558
0.0063156
0.00631559
0.0061936
0.00619359
0.00619361
0.0061936
0.00606829
0.00606828
0.00606829
0.00606828
0.00593987
0.00593987
0.00593988
0.00593987
0.00580859
0.00580859
0.0058086
0.00580858
0.00567465
0.00567465
0.00567466
0.00567464
0.00553828
0.00553829
0.00553829
0.00553826
0.00539971
0.00539972
0.00539971
0.00539968
0.00525917
0.00525918
0.00525918
0.00525914
0.00511695
0.00511695
0.00511696
0.00511692
0.00497335
0.00497335
0.00497335
0.00497331
0.0048287
0.00482869
0.0048287
0.00482865
0.00468337
0.00468337
0.00468338
0.00468333
0.0045378
0.0045378
0.0045378
0.00453775
0.00439244
0.00439244
0.00439245
0.00439239
0.00424782
0.00424782
0.00424782
0.00424777
0.0041045
0.0041045
0.00410451
0.00410445
0.00396312
0.00396313
0.00396312
0.00396307
0.00382437
0.00382438
0.00382436
0.0038243
0.00368897
0.00368898
0.00368897
0.00368891
0.00355774
0.00355776
0.00355774
0.00355768
0.00343154
0.00343156
0.00343153
0.00343148
0.00331127
0.0033113
0.00331127
0.00331122
0.0031979
0.00319792
0.00319791
0.00319785
0.00309244
0.00309245
0.00309245
0.00309241
0.00299596
0.00299596
0.00299596
0.00299592
0.00290954
0.00290954
0.00290954
0.00290951
0.00283433
0.00283433
0.00283433
0.0028343
0.00277152
0.00277151
0.00277152
0.00277149
0.00272236
0.00272235
0.00272236
0.00272232
0.00268815
0.00268814
0.00268815
0.00268812
0.0026703
0.00267029
0.00267029
0.00267026
)
;

boundaryField
{
    inlet
    {
        type            cyclic;
    }
    outlet
    {
        type            cyclic;
    }
    fixedWalls-bottom
    {
        type            kqRWallFunction;
        value           nonuniform List<scalar> 4(0.000198998 0.000198997 0.000198994 0.000198991);
    }
    fixedWalls-top
    {
        type            symmetry;
    }
    frontAndBack
    {
        type            empty;
    }
}


// ************************************************************************* //
