/*--------------------------------*- C++ -*----------------------------------*\
  =========                 |
  \\      /  F ield         | OpenFOAM: The Open Source CFD Toolbox
   \\    /   O peration     | Website:  https://openfoam.org
    \\  /    A nd           | Version:  10
     \\/     M anipulation  |
\*---------------------------------------------------------------------------*/
FoamFile
{
    format      ascii;
    class       volScalarField;
    location    "612";
    object      nut;
}
// * * * * * * * * * * * * * * * * * * * * * * * * * * * * * * * * * * * * * //

dimensions      [0 2 -1 0 0 0 0];

internalField   nonuniform List<scalar> 
200
(
7.79746e-07
7.79742e-07
7.7973e-07
7.7972e-07
5.47959e-05
5.47955e-05
5.47948e-05
5.47943e-05
0.000175679
0.000175679
0.000175677
0.000175675
0.000329861
0.000329862
0.000329859
0.000329856
0.000496737
0.000496732
0.000496725
0.00049672
0.000666866
0.000666862
0.00066685
0.000666846
0.00084149
0.000841486
0.000841478
0.00084147
0.00101894
0.00101893
0.00101892
0.00101892
0.00119818
0.00119818
0.00119817
0.00119817
0.00137855
0.00137854
0.00137854
0.00137854
0.00155955
0.00155955
0.00155955
0.00155956
0.00174085
0.00174085
0.00174085
0.00174086
0.00192214
0.00192214
0.00192215
0.00192217
0.00210321
0.00210321
0.00210322
0.00210325
0.00228387
0.00228386
0.00228388
0.00228391
0.00246394
0.00246395
0.00246396
0.002464
0.00264334
0.00264333
0.00264336
0.00264339
0.00282197
0.00282195
0.00282203
0.00282199
0.0029998
0.00299983
0.00299988
0.00299982
0.00317688
0.00317697
0.00317703
0.00317695
0.00335355
0.00335355
0.00335367
0.00335357
0.00352982
0.00352981
0.00352995
0.00352985
0.00370566
0.00370566
0.00370575
0.00370565
0.00388078
0.00388074
0.00388081
0.00388066
0.00405492
0.00405484
0.00405491
0.00405464
0.00422791
0.00422784
0.00422784
0.00422753
0.00439961
0.00439966
0.00439951
0.00439921
0.00457009
0.00456998
0.00456996
0.00456957
0.00473918
0.00473904
0.00473901
0.00473856
0.00490686
0.00490672
0.00490664
0.00490612
0.00507309
0.00507302
0.00507282
0.00507219
0.00523791
0.00523749
0.00523768
0.0052367
0.00540096
0.00540063
0.0054007
0.00539972
0.00556217
0.00556232
0.00556197
0.00556113
0.00572187
0.00572207
0.00572163
0.00572076
0.00587972
0.00587995
0.00587951
0.00587849
0.00603556
0.00603577
0.00603541
0.00603411
0.0061891
0.00618917
0.00618899
0.00618738
0.00634011
0.00633959
0.00633963
0.00633797
0.00648706
0.00648744
0.00648666
0.00648535
0.00663039
0.00663082
0.00662972
0.00662867
0.00676871
0.00676899
0.00676781
0.00676696
0.00690077
0.00690031
0.00689999
0.00689888
0.00702496
0.00702429
0.00702419
0.00702279
0.00713918
0.00713842
0.00713836
0.00713682
0.00724113
0.00724031
0.00724024
0.0072386
0.00732817
0.0073273
0.00732722
0.00732549
0.00739742
0.00739646
0.00739637
0.00739456
0.00744592
0.00744479
0.00744463
0.00744274
0.0074709
0.0074692
0.00746892
0.00746696
)
;

boundaryField
{
    inlet
    {
        type            cyclic;
    }
    outlet
    {
        type            cyclic;
    }
    fixedWalls-bottom
    {
        type            nutkWallFunction;
        Cmu             0.09;
        kappa           0.41;
        E               9.8;
        value           uniform 0;
    }
    fixedWalls-top
    {
        type            symmetry;
    }
    frontAndBack
    {
        type            empty;
    }
}


// ************************************************************************* //
