/*--------------------------------*- C++ -*----------------------------------*\
  =========                 |
  \\      /  F ield         | OpenFOAM: The Open Source CFD Toolbox
   \\    /   O peration     | Website:  https://openfoam.org
    \\  /    A nd           | Version:  10
     \\/     M anipulation  |
\*---------------------------------------------------------------------------*/
FoamFile
{
    format      ascii;
    class       volScalarField;
    location    "612";
    object      omega;
}
// * * * * * * * * * * * * * * * * * * * * * * * * * * * * * * * * * * * * * //

dimensions      [0 0 -1 0 0 0 0];

internalField   nonuniform List<scalar> 
200
(
255.209
255.209
255.209
255.209
68.5135
68.5138
68.5138
68.5138
33.6913
33.6915
33.6916
33.6916
20.6491
20.6493
20.6494
20.6494
14.4192
14.4194
14.4195
14.4195
10.904
10.9041
10.9042
10.9042
8.67962
8.67966
8.67971
8.67975
7.15732
7.15734
7.1574
7.15739
6.05483
6.05485
6.05488
6.05486
5.22167
5.22168
5.22169
5.22167
4.57087
4.57087
4.57087
4.57084
4.0489
4.0489
4.0489
4.04886
3.62116
3.62115
3.62115
3.62111
3.26428
3.26427
3.26426
3.26422
2.96198
2.96198
2.96196
2.96192
2.70256
2.70254
2.70254
2.70249
2.47738
2.47738
2.47736
2.47734
2.27997
2.27998
2.27993
2.27995
2.10534
2.10531
2.10528
2.10532
1.94959
1.94953
1.9495
1.94955
1.80951
1.80951
1.80945
1.8095
1.68277
1.68277
1.68271
1.68275
1.56749
1.56749
1.56745
1.56749
1.46225
1.46226
1.46224
1.46229
1.36582
1.36585
1.36582
1.36591
1.27716
1.27718
1.27718
1.27727
1.19537
1.19536
1.1954
1.19547
1.11966
1.11969
1.11969
1.11978
1.04941
1.04944
1.04945
1.04954
0.984071
0.984099
0.984115
0.98421
0.92318
0.923193
0.92323
0.923334
0.866338
0.866407
0.866376
0.866529
0.81327
0.81332
0.813311
0.813449
0.763697
0.763678
0.763727
0.763832
0.717335
0.717311
0.717367
0.717465
0.674031
0.674007
0.674057
0.674164
0.633639
0.633619
0.633654
0.63378
0.596043
0.596038
0.596053
0.596198
0.561149
0.561198
0.56119
0.561328
0.528982
0.528955
0.529014
0.529112
0.499409
0.49938
0.499458
0.499529
0.472453
0.472436
0.472517
0.472569
0.44813
0.448161
0.448182
0.448247
0.426473
0.426515
0.426521
0.4266
0.407546
0.407589
0.407593
0.407676
0.391421
0.391465
0.391469
0.391553
0.378201
0.378245
0.37825
0.378335
0.368015
0.368061
0.368067
0.368152
0.361024
0.361077
0.361086
0.361173
0.357427
0.357506
0.357521
0.35761
)
;

boundaryField
{
    inlet
    {
        type            cyclic;
    }
    outlet
    {
        type            cyclic;
    }
    fixedWalls-bottom
    {
        beta1           0.075;
        blended         0;
        type            omegaWallFunction;
        value           nonuniform List<scalar> 4(255.209 255.209 255.209 255.209);
    }
    fixedWalls-top
    {
        type            symmetry;
    }
    frontAndBack
    {
        type            empty;
    }
}


// ************************************************************************* //
