/*--------------------------------*- C++ -*----------------------------------*\
  =========                 |
  \\      /  F ield         | OpenFOAM: The Open Source CFD Toolbox
   \\    /   O peration     | Website:  https://openfoam.org
    \\  /    A nd           | Version:  10
     \\/     M anipulation  |
\*---------------------------------------------------------------------------*/
FoamFile
{
    format      ascii;
    class       volScalarField;
    location    "612";
    object      p;
}
// * * * * * * * * * * * * * * * * * * * * * * * * * * * * * * * * * * * * * //

dimensions      [0 2 -2 0 0 0 0];

internalField   nonuniform List<scalar> 
200
(
4.09972e-13
8.8266e-08
9.91509e-08
1.11011e-08
5.43322e-11
8.80175e-08
9.90981e-08
1.13494e-08
2.69812e-10
8.75826e-08
9.88836e-08
1.17836e-08
6.16215e-10
8.70915e-08
9.85379e-08
1.22738e-08
1.24242e-09
8.61762e-08
9.79127e-08
1.31881e-08
2.12377e-09
8.47918e-08
9.70324e-08
1.45715e-08
2.97791e-09
8.35157e-08
9.61795e-08
1.58465e-08
3.6163e-09
8.2492e-08
9.55423e-08
1.68689e-08
3.91728e-09
8.16008e-08
9.52427e-08
1.77589e-08
3.83296e-09
8.08645e-08
9.53284e-08
1.84939e-08
3.39702e-09
8.03094e-08
9.57658e-08
1.90477e-08
2.65734e-09
7.99012e-08
9.65069e-08
1.94546e-08
1.62723e-09
7.95969e-08
9.75385e-08
1.97575e-08
2.82317e-10
7.93629e-08
9.8885e-08
1.999e-08
-1.43598e-09
7.91946e-08
1.00605e-07
2.01569e-08
-3.4105e-09
7.90639e-08
1.02581e-07
2.02859e-08
-5.52001e-09
7.89526e-08
1.04692e-07
2.03956e-08
-7.53296e-09
7.91997e-08
1.06706e-07
2.01467e-08
-8.89596e-09
8.01305e-08
1.0807e-07
1.9214e-08
-9.70553e-09
8.19734e-08
1.08881e-07
1.73691e-08
-1.08856e-08
8.42325e-08
1.10063e-07
1.51079e-08
-1.28052e-08
8.62721e-08
1.11983e-07
1.30661e-08
-1.47553e-08
8.79685e-08
1.13935e-07
1.13676e-08
-1.5921e-08
8.88112e-08
1.15102e-07
1.05224e-08
-1.57583e-08
8.87592e-08
1.1494e-07
1.05722e-08
-1.39952e-08
8.79944e-08
1.13178e-07
1.13345e-08
-1.06218e-08
8.67064e-08
1.09806e-07
1.26201e-08
-6.80112e-09
8.50914e-08
1.05987e-07
1.42327e-08
-3.19986e-09
8.3067e-08
1.02387e-07
1.62548e-08
1.21764e-09
8.0591e-08
9.79713e-08
1.87284e-08
7.33084e-09
7.77346e-08
9.18594e-08
2.15825e-08
1.41566e-08
7.49199e-08
8.50349e-08
2.43948e-08
2.10286e-08
7.23254e-08
7.81639e-08
2.69872e-08
2.936e-08
7.00854e-08
6.98336e-08
2.9225e-08
3.91626e-08
6.81421e-08
6.00321e-08
3.11665e-08
4.96575e-08
6.64342e-08
4.95385e-08
3.28728e-08
6.08362e-08
6.55964e-08
3.83611e-08
3.37093e-08
7.22856e-08
6.54351e-08
2.69131e-08
3.38695e-08
8.27326e-08
6.41492e-08
1.64676e-08
3.51546e-08
9.32822e-08
6.18689e-08
5.91962e-09
3.7434e-08
1.04852e-07
5.90942e-08
-5.64869e-09
4.02081e-08
1.15477e-07
5.49991e-08
-1.62715e-08
4.43023e-08
1.23008e-07
5.0669e-08
-2.38012e-08
4.86317e-08
1.2805e-07
4.71032e-08
-2.8842e-08
5.21967e-08
1.32701e-07
4.41049e-08
-3.34913e-08
5.51946e-08
1.3718e-07
4.14297e-08
-3.79698e-08
5.78693e-08
1.412e-07
3.90684e-08
-4.19883e-08
6.02302e-08
1.44521e-07
3.70646e-08
-4.5309e-08
6.22337e-08
1.47023e-07
3.53798e-08
-4.78103e-08
6.39183e-08
1.48737e-07
3.4016e-08
-4.95239e-08
6.52822e-08
)
;

boundaryField
{
    inlet
    {
        type            cyclic;
    }
    outlet
    {
        type            cyclic;
    }
    fixedWalls-bottom
    {
        type            zeroGradient;
    }
    fixedWalls-top
    {
        type            symmetry;
    }
    frontAndBack
    {
        type            empty;
    }
}


// ************************************************************************* //
