/*--------------------------------*- C++ -*----------------------------------*\
  =========                 |
  \\      /  F ield         | OpenFOAM: The Open Source CFD Toolbox
   \\    /   O peration     | Website:  https://openfoam.org
    \\  /    A nd           | Version:  10
     \\/     M anipulation  |
\*---------------------------------------------------------------------------*/
FoamFile
{
    format      ascii;
    class       surfaceScalarField;
    location    "612";
    object      phi;
}
// * * * * * * * * * * * * * * * * * * * * * * * * * * * * * * * * * * * * * //

dimensions      [0 3 -1 0 0 0 0];

internalField   nonuniform List<scalar> 
346
(
0.00321519
-8.55362e-09
0.00321519
3.00925e-09
0.00321518
8.49309e-09
-3.00795e-09
0.00803956
-1.80107e-08
0.00803956
2.20411e-09
0.00803955
1.79477e-08
-2.20001e-09
0.0108607
-2.46627e-08
0.0108607
1.36448e-09
0.0108607
2.46004e-08
-1.35775e-09
0.0127196
-3.01627e-08
0.0127196
4.12449e-09
0.0127195
3.00997e-08
-4.11718e-09
0.0141631
-3.26637e-08
0.0141631
6.99216e-09
0.0141631
3.26023e-08
-6.98336e-09
0.0154052
-3.16009e-08
0.0154052
8.42872e-09
0.0154052
3.15392e-08
-8.41995e-09
0.016538
-2.80196e-08
0.016538
1.00947e-08
0.016538
2.79597e-08
-1.00848e-08
0.0176075
-2.30422e-08
0.0176075
1.257e-08
0.0176075
2.29823e-08
-1.25605e-08
0.0186402
-1.75797e-08
0.0186402
1.54485e-08
0.0186402
1.75218e-08
-1.5438e-08
0.0196532
-1.22582e-08
0.0196532
1.85314e-08
0.0196532
1.22002e-08
-1.85213e-08
0.0206576
-7.28509e-09
0.0206576
2.17202e-08
0.0206576
7.22921e-09
-2.17091e-08
0.0216616
-2.63175e-09
0.0216616
2.4784e-08
0.0216616
2.57576e-09
-2.47734e-08
0.0226712
1.79222e-09
0.0226712
2.74794e-08
0.0226712
-1.84596e-09
-2.74679e-08
0.0236909
5.99523e-09
0.0236909
2.94065e-08
0.0236909
-6.04909e-09
-2.93954e-08
0.0247246
9.66548e-09
0.0247246
3.02552e-08
0.0247246
-9.71696e-09
-3.02431e-08
0.0257752
1.27272e-08
0.0257752
2.96507e-08
0.0257752
-1.27788e-08
-2.9639e-08
0.0268453
1.50794e-08
0.0268453
2.71786e-08
0.0268453
-1.51285e-08
-2.71659e-08
0.0279372
1.65509e-08
0.0279372
2.33036e-08
0.0279372
-1.66e-08
-2.32912e-08
0.0290529
1.79753e-08
0.0290529
1.90466e-08
0.0290529
-1.80217e-08
-1.90332e-08
0.030194
1.98903e-08
0.030194
1.58951e-08
0.030194
-1.99367e-08
-1.58818e-08
0.0313622
2.08468e-08
0.0313622
1.41068e-08
0.0313622
-2.08905e-08
-1.40926e-08
0.0325589
1.89368e-08
0.0325589
1.27097e-08
0.0325589
-1.89802e-08
-1.26955e-08
0.0337854
1.38396e-08
0.0337854
1.14837e-08
0.0337854
-1.38801e-08
-1.14686e-08
0.0350431
6.46771e-09
0.0350431
9.51015e-09
0.0350431
-6.50774e-09
-9.49483e-09
0.0363332
-1.62338e-09
0.0363332
6.59103e-09
0.0363332
1.58607e-09
-6.57519e-09
0.0376568
-8.81751e-09
0.0376568
2.99975e-09
0.0376568
8.78118e-09
-2.98346e-09
0.0390151
-1.33846e-08
0.0390151
-8.60066e-10
0.0390151
1.3351e-08
8.76611e-10
0.0404092
-1.60137e-08
0.0404092
-4.57869e-09
0.0404092
1.59816e-08
4.59589e-09
0.04184
-1.86873e-08
0.04184
-8.38074e-09
0.04184
1.86577e-08
8.39766e-09
0.0433086
-2.14065e-08
0.0433086
-1.25591e-08
0.0433086
2.1379e-08
1.25768e-08
0.0448158
-2.24198e-08
0.0448158
-1.73698e-08
0.0448158
2.23946e-08
1.73868e-08
0.0463627
-2.21605e-08
0.0463627
-2.24575e-08
0.0463627
2.21377e-08
2.24753e-08
0.0479499
-2.28026e-08
0.0479499
-2.77437e-08
0.0479499
2.27819e-08
2.77602e-08
0.0495783
-2.33627e-08
0.0495783
-3.26554e-08
0.0495783
2.33448e-08
3.26727e-08
0.0512485
-2.30714e-08
0.0512485
-3.66589e-08
0.0512485
2.3055e-08
3.66744e-08
0.0529612
-2.26495e-08
0.0529612
-3.9704e-08
0.0529612
2.2636e-08
3.97201e-08
0.054717
-2.22363e-08
0.054717
-4.06127e-08
0.054717
2.22241e-08
4.06266e-08
0.0565162
-2.157e-08
0.0565162
-3.78644e-08
0.0565162
2.15605e-08
3.78787e-08
0.0583593
-2.26379e-08
0.0583593
-3.36168e-08
0.0583593
2.26293e-08
3.36287e-08
0.0602466
-2.44749e-08
0.0602466
-2.8546e-08
0.0602466
2.44687e-08
2.8558e-08
0.0621782
-2.34002e-08
0.0621782
-2.19407e-08
0.0621782
2.33945e-08
2.19504e-08
0.0641541
-1.89113e-08
0.0641541
-1.61127e-08
0.0641541
1.89076e-08
1.61221e-08
0.0661742
-1.43606e-08
0.0661742
-1.21156e-08
0.0661742
1.43571e-08
1.2123e-08
0.0682383
-1.20024e-08
0.0682383
-9.21148e-09
0.0682383
1.20001e-08
9.21813e-09
0.0703457
-1.06551e-08
0.0703457
-7.11755e-09
0.0703457
1.06532e-08
7.12244e-09
0.0724959
-9.56389e-09
0.0724959
-5.58624e-09
0.0724959
9.56251e-09
5.5902e-09
0.0746876
-8.26557e-09
0.0746876
-4.18419e-09
0.0746876
8.26439e-09
4.1869e-09
0.0769196
-6.46913e-09
0.0769196
-2.61734e-09
0.0769196
6.46807e-09
2.61893e-09
0.0791898
-3.88709e-09
0.0791898
-9.87585e-10
0.0791898
3.88599e-09
9.8868e-10
0.0814959
0.0814959
0.0814959
)
;

boundaryField
{
    inlet
    {
        type            cyclic;
        value           nonuniform List<scalar> 
50
(
-0.0814959
-0.0791898
-0.0769196
-0.0746876
-0.0724959
-0.0703457
-0.0682383
-0.0661742
-0.0641541
-0.0621782
-0.0602466
-0.0583593
-0.0565162
-0.054717
-0.0529612
-0.0512485
-0.0495783
-0.0479499
-0.0463627
-0.0448158
-0.0433086
-0.04184
-0.0404092
-0.0390151
-0.0376568
-0.0363332
-0.0350431
-0.0337854
-0.0325589
-0.0313622
-0.030194
-0.0290529
-0.0279372
-0.0268453
-0.0257752
-0.0247246
-0.0236909
-0.0226712
-0.0216616
-0.0206576
-0.0196532
-0.0186403
-0.0176075
-0.016538
-0.0154052
-0.0141631
-0.0127196
-0.0108607
-0.00803955
-0.00321519
)
;
    }
    outlet
    {
        type            cyclic;
        value           nonuniform List<scalar> 
50
(
0.0814959
0.0791898
0.0769196
0.0746876
0.0724959
0.0703457
0.0682383
0.0661742
0.0641541
0.0621782
0.0602466
0.0583593
0.0565162
0.054717
0.0529612
0.0512485
0.0495783
0.0479499
0.0463627
0.0448158
0.0433086
0.04184
0.0404092
0.0390151
0.0376568
0.0363332
0.0350431
0.0337854
0.0325589
0.0313622
0.030194
0.0290529
0.0279372
0.0268453
0.0257752
0.0247246
0.0236909
0.0226712
0.0216616
0.0206576
0.0196532
0.0186403
0.0176075
0.016538
0.0154052
0.0141631
0.0127196
0.0108607
0.00803955
0.00321519
)
;
    }
    fixedWalls-bottom
    {
        type            calculated;
        value           uniform 0;
    }
    fixedWalls-top
    {
        type            symmetry;
        value           uniform 0;
    }
    frontAndBack
    {
        type            empty;
        value           nonuniform List<scalar> 0();
    }
}


// ************************************************************************* //
