/*--------------------------------*- C++ -*----------------------------------*\
  =========                 |
  \\      /  F ield         | OpenFOAM: The Open Source CFD Toolbox
   \\    /   O peration     | Website:  https://openfoam.org
    \\  /    A nd           | Version:  10
     \\/     M anipulation  |
\*---------------------------------------------------------------------------*/
FoamFile
{
    format      ascii;
    class       volSymmTensorField;
    location    "612";
    object      R;
}
// * * * * * * * * * * * * * * * * * * * * * * * * * * * * * * * * * * * * * //

dimensions      [0 2 -2 0 0 0 0];

internalField   nonuniform List<symmTensor> 
200
(
(0.000132665 -2.51848e-05 -0 0.000132665 -0 0.000132665)
(0.000132665 -2.51847e-05 -0 0.000132665 -0 0.000132665)
(0.000132663 -2.51843e-05 -0 0.000132663 -0 0.000132663)
(0.000132661 -2.51839e-05 -0 0.000132661 -0 0.000132661)
(0.00250284 -0.00111061 -0 0.00250284 -0 0.00250284)
(0.00250283 -0.0011106 -0 0.00250283 -0 0.00250283)
(0.0025028 -0.00111059 -0 0.0025028 -0 0.0025028)
(0.00250278 -0.00111057 -0 0.00250278 -0 0.00250278)
(0.00408363 -0.00189915 -0 0.00408363 -0 0.00408363)
(0.00408362 -0.00189914 -0 0.00408362 -0 0.00408362)
(0.00408358 -0.00189912 -0 0.00408358 -0 0.00408358)
(0.00408355 -0.00189911 -0 0.00408355 -0 0.00408355)
(0.00458934 -0.00213405 -0 0.00458934 -0 0.00458934)
(0.00458933 -0.00213404 -0 0.00458933 -0 0.00458933)
(0.0045893 -0.00213403 -0 0.0045893 -0 0.0045893)
(0.00458927 -0.00213401 -0 0.00458927 -0 0.00458927)
(0.00477504 -0.00221067 -0 0.00477504 -0 0.00477504)
(0.00477504 -0.00221065 -0 0.00477504 -0 0.00477504)
(0.004775 -0.00221062 -0 0.004775 -0 0.004775)
(0.00477497 -0.00221061 -0 0.00477497 -0 0.00477497)
(0.00484767 -0.00223438 -0 0.00484767 -0 0.00484767)
(0.00484767 -0.00223436 -0 0.00484767 -0 0.00484767)
(0.00484764 -0.00223433 -0 0.00484764 -0 0.00484764)
(0.00484761 -0.00223433 -0 0.00484762 -0 0.00484762)
(0.00486921 -0.00224283 -0 0.00486921 -0 0.00486921)
(0.00486921 -0.00224281 -0 0.00486921 -0 0.00486921)
(0.00486919 -0.00224279 -0 0.00486919 -0 0.00486919)
(0.00486917 -0.00224278 -0 0.00486917 -0 0.00486917)
(0.0048619 -0.00223955 -0 0.0048619 -0 0.0048619)
(0.0048619 -0.00223954 -0 0.0048619 -0 0.0048619)
(0.00486189 -0.00223952 -0 0.00486189 -0 0.00486189)
(0.00486187 -0.00223952 -0 0.00486187 -0 0.00486187)
(0.00483652 -0.00222886 -0 0.00483652 -0 0.00483652)
(0.00483652 -0.00222885 -0 0.00483652 -0 0.00483652)
(0.00483651 -0.00222884 -0 0.00483652 -0 0.00483652)
(0.0048365 -0.00222884 -0 0.0048365 -0 0.0048365)
(0.00479888 -0.00221302 -0 0.00479888 -0 0.00479888)
(0.00479888 -0.00221302 -0 0.00479888 -0 0.00479888)
(0.00479887 -0.00221301 -0 0.00479887 -0 0.00479887)
(0.00479886 -0.00221301 -0 0.00479887 -0 0.00479887)
(0.00475234 -0.00219336 -0 0.00475234 -0 0.00475234)
(0.00475234 -0.00219336 -0 0.00475234 -0 0.00475234)
(0.00475234 -0.00219336 -0 0.00475234 -0 0.00475234)
(0.00475234 -0.00219337 -0 0.00475234 -0 0.00475234)
(0.00469901 -0.00217069 -0 0.00469901 -0 0.00469901)
(0.00469901 -0.0021707 -0 0.00469901 -0 0.00469901)
(0.00469901 -0.0021707 -0 0.00469901 -0 0.00469901)
(0.00469901 -0.00217071 -0 0.00469901 -0 0.00469901)
(0.00464025 -0.00214555 -0 0.00464025 -0 0.00464025)
(0.00464025 -0.00214555 -0 0.00464024 -0 0.00464024)
(0.00464025 -0.00214556 -0 0.00464025 -0 0.00464025)
(0.00464025 -0.00214557 -0 0.00464025 -0 0.00464025)
(0.00457698 -0.00211827 -0 0.00457698 -0 0.00457698)
(0.00457697 -0.00211827 -0 0.00457697 -0 0.00457697)
(0.00457698 -0.00211828 -0 0.00457698 -0 0.00457698)
(0.00457698 -0.0021183 -0 0.00457698 -0 0.00457698)
(0.00450984 -0.00208909 -0 0.00450984 -0 0.00450984)
(0.00450983 -0.00208909 -0 0.00450983 -0 0.00450983)
(0.00450984 -0.00208912 -0 0.00450984 -0 0.00450984)
(0.00450984 -0.00208913 -0 0.00450984 -0 0.00450984)
(0.0044393 -0.00205819 -0 0.0044393 -0 0.0044393)
(0.00443929 -0.0020582 -0 0.00443929 -0 0.00443929)
(0.0044393 -0.00205822 -0 0.0044393 -0 0.0044393)
(0.0044393 -0.00205823 -0 0.0044393 -0 0.0044393)
(0.00436571 -0.00202568 -0 0.00436571 -0 0.00436571)
(0.0043657 -0.00202568 -0 0.0043657 -0 0.0043657)
(0.00436571 -0.00202571 -0 0.00436571 -0 0.00436571)
(0.00436571 -0.00202572 -0 0.00436571 -0 0.00436571)
(0.00428934 -0.00199164 -0 0.00428934 -0 0.00428934)
(0.00428932 -0.00199163 -0 0.00428932 -0 0.00428932)
(0.00428934 -0.00199169 -0 0.00428934 -0 0.00428934)
(0.00428934 -0.00199166 -0 0.00428933 -0 0.00428934)
(0.0042104 -0.00195611 -0 0.0042104 -0 0.0042104)
(0.00421038 -0.00195613 -0 0.00421039 -0 0.00421038)
(0.0042104 -0.00195616 -0 0.0042104 -0 0.0042104)
(0.0042104 -0.00195612 -0 0.00421039 -0 0.00421039)
(0.00412907 -0.00191912 -0 0.00412907 -0 0.00412907)
(0.00412906 -0.00191916 -0 0.00412906 -0 0.00412906)
(0.00412907 -0.00191919 -0 0.00412908 -0 0.00412908)
(0.00412907 -0.00191914 -0 0.00412907 -0 0.00412907)
(0.00404552 -0.00188077 -0 0.00404552 -0 0.00404552)
(0.00404552 -0.00188078 -0 0.00404552 -0 0.00404552)
(0.00404553 -0.00188083 -0 0.00404553 -0 0.00404553)
(0.00404552 -0.00188076 -0 0.00404552 -0 0.00404552)
(0.00395991 -0.00184103 -0 0.00395992 -0 0.00395992)
(0.00395991 -0.00184104 -0 0.00395991 -0 0.00395991)
(0.00395992 -0.0018411 -0 0.00395992 -0 0.00395992)
(0.00395991 -0.00184102 -0 0.00395991 -0 0.00395991)
(0.00387239 -0.00179992 -0 0.0038724 -0 0.00387239)
(0.00387239 -0.00179993 -0 0.00387239 -0 0.00387239)
(0.0038724 -0.00179997 -0 0.0038724 -0 0.0038724)
(0.00387239 -0.00179989 -0 0.00387239 -0 0.00387239)
(0.0037831 -0.00175738 -0 0.00378311 -0 0.0037831)
(0.0037831 -0.00175737 -0 0.0037831 -0 0.0037831)
(0.00378311 -0.0017574 -0 0.0037831 -0 0.00378311)
(0.00378309 -0.00175732 -0 0.00378309 -0 0.00378309)
(0.00369219 -0.0017134 -0 0.00369219 -0 0.00369219)
(0.00369219 -0.00171338 -0 0.00369219 -0 0.00369219)
(0.0036922 -0.0017134 -0 0.00369219 -0 0.00369219)
(0.00369218 -0.0017133 -0 0.00369217 -0 0.00369218)
(0.0035998 -0.00166796 -0 0.00359981 -0 0.00359981)
(0.00359981 -0.00166793 -0 0.00359981 -0 0.00359981)
(0.00359981 -0.00166794 -0 0.00359981 -0 0.00359981)
(0.00359979 -0.00166783 -0 0.00359979 -0 0.00359979)
(0.00350611 -0.00162103 -0 0.00350612 -0 0.00350612)
(0.00350612 -0.00162103 -0 0.00350612 -0 0.00350612)
(0.00350612 -0.00162099 -0 0.00350612 -0 0.00350612)
(0.0035061 -0.00162089 -0 0.00350609 -0 0.00350609)
(0.0034113 -0.00157263 -0 0.0034113 -0 0.0034113)
(0.0034113 -0.00157258 -0 0.0034113 -0 0.0034113)
(0.00341131 -0.00157258 -0 0.0034113 -0 0.0034113)
(0.00341128 -0.00157245 -0 0.00341128 -0 0.00341128)
(0.00331556 -0.00152268 -0 0.00331557 -0 0.00331556)
(0.00331556 -0.00152264 -0 0.00331557 -0 0.00331556)
(0.00331557 -0.00152263 -0 0.00331557 -0 0.00331557)
(0.00331554 -0.00152249 -0 0.00331554 -0 0.00331554)
(0.00321913 -0.00147118 -0 0.00321913 -0 0.00321913)
(0.00321913 -0.00147114 -0 0.00321913 -0 0.00321913)
(0.00321913 -0.00147112 -0 0.00321913 -0 0.00321913)
(0.0032191 -0.00147097 -0 0.0032191 -0 0.0032191)
(0.00312225 -0.00141809 -0 0.00312225 -0 0.00312225)
(0.00312225 -0.00141807 -0 0.00312225 -0 0.00312225)
(0.00312225 -0.00141802 -0 0.00312225 -0 0.00312225)
(0.00312222 -0.00141786 -0 0.00312222 -0 0.00312222)
(0.0030252 -0.0013634 -0 0.0030252 -0 0.0030252)
(0.0030252 -0.00136332 -0 0.0030252 -0 0.0030252)
(0.0030252 -0.00136334 -0 0.0030252 -0 0.0030252)
(0.00302517 -0.00136312 -0 0.00302517 -0 0.00302517)
(0.0029283 -0.00130701 -0 0.0029283 -0 0.0029283)
(0.00292829 -0.00130695 -0 0.00292829 -0 0.00292829)
(0.0029283 -0.00130694 -0 0.0029283 -0 0.0029283)
(0.00292826 -0.00130673 -0 0.00292826 -0 0.00292826)
(0.00283188 -0.00124889 -0 0.00283188 -0 0.00283188)
(0.00283188 -0.00124891 -0 0.00283188 -0 0.00283188)
(0.00283188 -0.00124884 -0 0.00283188 -0 0.00283188)
(0.00283185 -0.00124864 -0 0.00283184 -0 0.00283184)
(0.00273633 -0.00118906 -0 0.00273633 -0 0.00273633)
(0.00273633 -0.00118907 -0 0.00273634 -0 0.00273634)
(0.00273634 -0.001189 -0 0.00273634 -0 0.00273634)
(0.0027363 -0.00118881 -0 0.0027363 -0 0.0027363)
(0.00264208 -0.00112744 -0 0.00264208 -0 0.00264208)
(0.00264208 -0.00112746 -0 0.00264209 -0 0.00264208)
(0.00264208 -0.00112738 -0 0.00264208 -0 0.00264208)
(0.00264204 -0.00112718 -0 0.00264204 -0 0.00264204)
(0.00254958 -0.00106398 -0 0.00254958 -0 0.00254958)
(0.00254959 -0.001064 -0 0.00254959 -0 0.00254959)
(0.00254957 -0.00106393 -0 0.00254957 -0 0.00254957)
(0.00254954 -0.00106371 -0 0.00254954 -0 0.00254954)
(0.00245931 -0.000998632 -0 0.00245931 -0 0.00245931)
(0.00245932 -0.000998657 -0 0.00245932 -0 0.00245932)
(0.00245931 -0.000998593 -0 0.00245931 -0 0.00245931)
(0.00245927 -0.000998361 -0 0.00245927 -0 0.00245927)
(0.00237183 -0.000931386 -0 0.00237183 -0 0.00237183)
(0.00237185 -0.000931337 -0 0.00237184 -0 0.00237184)
(0.00237183 -0.000931308 -0 0.00237182 -0 0.00237183)
(0.00237178 -0.000931089 -0 0.00237179 -0 0.00237179)
(0.00228769 -0.000862069 -0 0.0022877 -0 0.0022877)
(0.00228771 -0.000862109 -0 0.00228771 -0 0.00228771)
(0.00228769 -0.000862008 -0 0.00228769 -0 0.00228769)
(0.00228765 -0.00086184 -0 0.00228766 -0 0.00228765)
(0.00220752 -0.000790763 -0 0.00220752 -0 0.00220752)
(0.00220753 -0.000790778 -0 0.00220753 -0 0.00220753)
(0.00220751 -0.000790683 -0 0.00220751 -0 0.00220751)
(0.00220747 -0.000790547 -0 0.00220748 -0 0.00220748)
(0.00213193 -0.000717343 -0 0.00213193 -0 0.00213193)
(0.00213195 -0.000717357 -0 0.00213194 -0 0.00213194)
(0.00213194 -0.00071726 -0 0.00213194 -0 0.00213194)
(0.0021319 -0.000717154 -0 0.00213191 -0 0.0021319)
(0.00206163 -0.000641769 -0 0.00206163 -0 0.00206163)
(0.00206164 -0.000641737 -0 0.00206163 -0 0.00206164)
(0.00206163 -0.000641709 -0 0.00206164 -0 0.00206163)
(0.0020616 -0.000641596 -0 0.00206161 -0 0.0020616)
(0.0019973 -0.00056398 -0 0.0019973 -0 0.0019973)
(0.00199731 -0.000563945 -0 0.00199731 -0 0.00199731)
(0.00199731 -0.000563925 -0 0.00199731 -0 0.00199731)
(0.00199728 -0.000563813 -0 0.00199728 -0 0.00199728)
(0.00193969 -0.000483901 -0 0.00193969 -0 0.00193969)
(0.00193969 -0.000483863 -0 0.00193969 -0 0.00193969)
(0.00193969 -0.000483851 -0 0.0019397 -0 0.0019397)
(0.00193967 -0.00048375 -0 0.00193967 -0 0.00193967)
(0.00188956 -0.000401474 -0 0.00188955 -0 0.00188955)
(0.00188955 -0.000401435 -0 0.00188955 -0 0.00188955)
(0.00188955 -0.000401428 -0 0.00188956 -0 0.00188955)
(0.00188953 -0.00040134 -0 0.00188953 -0 0.00188953)
(0.00184768 -0.000316629 -0 0.00184768 -0 0.00184768)
(0.00184768 -0.000316593 -0 0.00184768 -0 0.00184768)
(0.00184768 -0.000316588 -0 0.00184768 -0 0.00184768)
(0.00184766 -0.000316517 -0 0.00184766 -0 0.00184766)
(0.00181491 -0.000229298 -0 0.00181491 -0 0.00181491)
(0.0018149 -0.000229269 -0 0.0018149 -0 0.0018149)
(0.00181491 -0.000229265 -0 0.00181491 -0 0.00181491)
(0.00181488 -0.000229214 -0 0.00181488 -0 0.00181488)
(0.0017921 -0.000139415 -0 0.0017921 -0 0.0017921)
(0.0017921 -0.000139395 -0 0.0017921 -0 0.0017921)
(0.0017921 -0.000139393 -0 0.0017921 -0 0.0017921)
(0.00179208 -0.000139361 -0 0.00179208 -0 0.00179208)
(0.0017802 -4.69132e-05 -0 0.0017802 -0 0.0017802)
(0.00178019 -4.69034e-05 -0 0.00178019 -0 0.00178019)
(0.00178019 -4.69026e-05 -0 0.0017802 -0 0.0017802)
(0.00178017 -4.68918e-05 -0 0.00178017 -0 0.00178017)
)
;

boundaryField
{
    inlet
    {
        type            cyclic;
    }
    outlet
    {
        type            cyclic;
    }
    fixedWalls-bottom
    {
        type            kqRWallFunction;
        value           nonuniform List<symmTensor> 4((0.000132665 -0 -0 0.000132665 -0 0.000132665) (0.000132665 -0 -0 0.000132665 -0 0.000132665) (0.000132663 -0 -0 0.000132663 -0 0.000132663) (0.000132661 -0 -0 0.000132661 -0 0.000132661));
    }
    fixedWalls-top
    {
        type            symmetry;
    }
    frontAndBack
    {
        type            empty;
    }
}


// ************************************************************************* //
