/*--------------------------------*- C++ -*----------------------------------*\
  =========                 |
  \\      /  F ield         | OpenFOAM: The Open Source CFD Toolbox
   \\    /   O peration     | Website:  https://openfoam.org
    \\  /    A nd           | Version:  10
     \\/     M anipulation  |
\*---------------------------------------------------------------------------*/
FoamFile
{
    format      ascii;
    class       volVectorField;
    location    "612";
    object      U;
}
// * * * * * * * * * * * * * * * * * * * * * * * * * * * * * * * * * * * * * //

dimensions      [0 1 -1 0 0 0 0];

internalField   nonuniform List<vector> 
200
(
(0.174497 -4.81274e-09 0)
(0.174497 2.79661e-09 0)
(0.174496 4.76636e-09 0)
(0.174496 -2.79947e-09 0)
(0.424156 -1.34432e-08 0)
(0.424156 1.32068e-09 0)
(0.424156 1.33859e-08 0)
(0.424155 -1.31616e-09 0)
(0.55701 -2.16266e-08 0)
(0.557011 1.22462e-09 0)
(0.55701 2.15619e-08 0)
(0.55701 -1.22046e-09 0)
(0.634149 -2.81679e-08 0)
(0.634149 3.16233e-09 0)
(0.634149 2.81045e-08 0)
(0.634149 -3.15565e-09 0)
(0.686422 -3.17306e-08 0)
(0.686422 4.68132e-09 0)
(0.686422 3.16682e-08 0)
(0.686422 -4.67347e-09 0)
(0.725793 -3.26e-08 0)
(0.725793 7.30316e-09 0)
(0.725793 3.25382e-08 0)
(0.725793 -7.29454e-09 0)
(0.75743 -3.01445e-08 0)
(0.75743 9.32753e-09 0)
(0.75743 3.00837e-08 0)
(0.75743 -9.31825e-09 0)
(0.783915 -2.56881e-08 0)
(0.783915 1.12643e-08 0)
(0.783915 2.56281e-08 0)
(0.783915 -1.12546e-08 0)
(0.806746 -2.0354e-08 0)
(0.806745 1.39298e-08 0)
(0.806745 2.0295e-08 0)
(0.806746 -1.39197e-08 0)
(0.826858 -1.48974e-08 0)
(0.826857 1.70186e-08 0)
(0.826857 1.48394e-08 0)
(0.826858 -1.70083e-08 0)
(0.844872 -9.69618e-09 0)
(0.844872 2.01953e-08 0)
(0.844872 9.63922e-09 0)
(0.844873 -2.01847e-08 0)
(0.861221 -4.87824e-09 0)
(0.861221 2.33721e-08 0)
(0.861221 4.82228e-09 0)
(0.861222 -2.33612e-08 0)
(0.876216 -3.28001e-10 0)
(0.876216 2.63065e-08 0)
(0.876216 2.73157e-10 0)
(0.876216 -2.62954e-08 0)
(0.890087 4.00386e-09 0)
(0.890087 2.86927e-08 0)
(0.890087 -4.05762e-09 0)
(0.890087 -2.86814e-08 0)
(0.903009 7.85944e-09 0)
(0.903009 3.01936e-08 0)
(0.903009 -7.91203e-09 0)
(0.90301 -3.01819e-08 0)
(0.91512 1.13618e-08 0)
(0.91512 3.03449e-08 0)
(0.91512 -1.14132e-08 0)
(0.91512 -3.03329e-08 0)
(0.926527 1.38804e-08 0)
(0.926527 2.85947e-08 0)
(0.926527 -1.39306e-08 0)
(0.926527 -2.85824e-08 0)
(0.937316 1.5735e-08 0)
(0.937315 2.54212e-08 0)
(0.937316 -1.5784e-08 0)
(0.937316 -2.54087e-08 0)
(0.947555 1.75266e-08 0)
(0.947555 2.09693e-08 0)
(0.947555 -1.75744e-08 0)
(0.947555 -2.09564e-08 0)
(0.957302 1.93907e-08 0)
(0.957302 1.76215e-08 0)
(0.957302 -1.94371e-08 0)
(0.957302 -1.76082e-08 0)
(0.966602 2.07006e-08 0)
(0.966602 1.47546e-08 0)
(0.966602 -2.07458e-08 0)
(0.966602 -1.47409e-08 0)
(0.975493 2.02543e-08 0)
(0.975493 1.3522e-08 0)
(0.975493 -2.0298e-08 0)
(0.975493 -1.35079e-08 0)
(0.984005 1.68287e-08 0)
(0.984005 1.23226e-08 0)
(0.984005 -1.6871e-08 0)
(0.984005 -1.23081e-08 0)
(0.992165 1.03316e-08 0)
(0.992165 1.05551e-08 0)
(0.992165 -1.03721e-08 0)
(0.992164 -1.05401e-08 0)
(0.999995 2.35923e-09 0)
(0.999995 8.18871e-09 0)
(0.999995 -2.39811e-09 0)
(0.999994 -8.17333e-09 0)
(1.00751 -5.55563e-09 0)
(1.00751 4.70941e-09 0)
(1.00751 5.51866e-09 0)
(1.00751 -4.69353e-09 0)
(1.01474 -1.10148e-08 0)
(1.01474 1.0395e-09 0)
(1.01474 1.09798e-08 0)
(1.01474 -1.02322e-09 0)
(1.02168 -1.52339e-08 0)
(1.02168 -2.71086e-09 0)
(1.02168 1.5201e-08 0)
(1.02168 2.72764e-09 0)
(1.02834 -1.77522e-08 0)
(1.02834 -6.45704e-09 0)
(1.02834 1.77213e-08 0)
(1.02834 6.47401e-09 0)
(1.03474 -2.03744e-08 0)
(1.03474 -1.04589e-08 0)
(1.03474 2.03459e-08 0)
(1.03474 1.04761e-08 0)
(1.04089 -2.15401e-08 0)
(1.04089 -1.50793e-08 0)
(1.04089 2.15137e-08 0)
(1.04089 1.50965e-08 0)
(1.04678 -2.2712e-08 0)
(1.04678 -1.98307e-08 0)
(1.04678 2.2688e-08 0)
(1.04678 1.9848e-08 0)
(1.05241 -2.28118e-08 0)
(1.05241 -2.53284e-08 0)
(1.05241 2.279e-08 0)
(1.05241 2.53454e-08 0)
(1.0578 -2.27983e-08 0)
(1.0578 -3.02398e-08 0)
(1.0578 2.27789e-08 0)
(1.0578 3.02566e-08 0)
(1.06293 -2.32371e-08 0)
(1.06293 -3.50807e-08 0)
(1.06293 2.322e-08 0)
(1.06293 3.50972e-08 0)
(1.06781 -2.28484e-08 0)
(1.06781 -3.87348e-08 0)
(1.06781 2.28336e-08 0)
(1.06781 3.87507e-08 0)
(1.07244 -2.20525e-08 0)
(1.07244 -4.0476e-08 0)
(1.07244 2.20399e-08 0)
(1.07244 4.04912e-08 0)
(1.0768 -2.12842e-08 0)
(1.0768 -3.91945e-08 0)
(1.0768 2.12736e-08 0)
(1.0768 3.92087e-08 0)
(1.0809 -2.28157e-08 0)
(1.0809 -3.66739e-08 0)
(1.0809 2.2807e-08 0)
(1.0809 3.66875e-08 0)
(1.08473 -2.33388e-08 0)
(1.08473 -3.09412e-08 0)
(1.08473 2.33317e-08 0)
(1.08473 3.09535e-08 0)
(1.08828 -2.3947e-08 0)
(1.08828 -2.53893e-08 0)
(1.08828 2.39414e-08 0)
(1.08828 2.54008e-08 0)
(1.09154 -2.10441e-08 0)
(1.09154 -1.93082e-08 0)
(1.09154 2.10398e-08 0)
(1.09154 1.93184e-08 0)
(1.09451 -1.73903e-08 0)
(1.09451 -1.371e-08 0)
(1.09451 1.73873e-08 0)
(1.09451 1.37189e-08 0)
(1.09716 -1.30978e-08 0)
(1.09716 -1.01343e-08 0)
(1.09716 1.30953e-08 0)
(1.09716 1.01418e-08 0)
(1.09949 -1.10959e-08 0)
(1.09949 -7.9675e-09 0)
(1.09949 1.1094e-08 0)
(1.09949 7.97357e-09 0)
(1.10149 -1.00149e-08 0)
(1.10149 -6.35455e-09 0)
(1.10149 1.00133e-08 0)
(1.10149 6.35906e-09 0)
(1.10314 -8.93513e-09 0)
(1.10314 -4.92683e-09 0)
(1.10314 8.93365e-09 0)
(1.10314 4.93012e-09 0)
(1.10441 -7.49052e-09 0)
(1.10441 -3.39302e-09 0)
(1.10441 7.48923e-09 0)
(1.10441 3.39504e-09 0)
(1.10529 -5.45933e-09 0)
(1.10529 -1.78721e-09 0)
(1.10529 5.45614e-09 0)
(1.10529 1.78615e-09 0)
(1.10575 -2.08343e-09 0)
(1.10575 -5.55601e-10 0)
(1.10575 2.08411e-09 0)
(1.10575 5.57657e-10 0)
)
;

boundaryField
{
    inlet
    {
        type            cyclic;
    }
    outlet
    {
        type            cyclic;
    }
    fixedWalls-bottom
    {
        type            noSlip;
    }
    fixedWalls-top
    {
        type            symmetry;
    }
    frontAndBack
    {
        type            empty;
    }
}


// ************************************************************************* //
