/*--------------------------------*- C++ -*----------------------------------*\
  =========                 |
  \\      /  F ield         | OpenFOAM: The Open Source CFD Toolbox
   \\    /   O peration     | Website:  https://openfoam.org
    \\  /    A nd           | Version:  10
     \\/     M anipulation  |
\*---------------------------------------------------------------------------*/
FoamFile
{
    format      ascii;
    class       volScalarField;
    location    "2941";
    object      k;
}
// * * * * * * * * * * * * * * * * * * * * * * * * * * * * * * * * * * * * * //

dimensions      [0 2 -2 0 0 0 0];

internalField   nonuniform List<scalar> 
400
(
2.31058e-08
2.31392e-08
2.31408e-08
2.31351e-08
6.93242e-07
6.94246e-07
6.94295e-07
6.94123e-07
4.90911e-06
4.91622e-06
4.91656e-06
4.91535e-06
1.78404e-05
1.78663e-05
1.78675e-05
1.78631e-05
4.61073e-05
4.61745e-05
4.61775e-05
4.6166e-05
9.73802e-05
9.75228e-05
9.75284e-05
9.75042e-05
0.000180008
0.000180273
0.000180281
0.000180236
0.000302431
0.000302874
0.000302883
0.000302808
0.00047226
0.000472943
0.000472947
0.000472829
0.000695092
0.000696069
0.000696054
0.000695882
0.000973287
0.000974585
0.000974533
0.000974291
0.00130508
0.00130669
0.00130657
0.00130624
0.00168439
0.00168626
0.00168602
0.00168559
0.00210138
0.00210339
0.002103
0.00210246
0.00254366
0.00254572
0.00254512
0.00254446
0.00299792
0.00299993
0.00299908
0.0029983
0.00345135
0.00345325
0.00345215
0.00345127
0.00389289
0.00389467
0.00389333
0.00389237
0.00431381
0.00431547
0.00431396
0.00431295
0.00470852
0.00471006
0.00470843
0.0047074
0.00507534
0.00507675
0.00507498
0.00507398
0.00541276
0.00541404
0.00541217
0.00541125
0.00571979
0.00572094
0.00571902
0.00571821
0.00599626
0.00599728
0.00599535
0.0059947
0.0062427
0.00624359
0.00624169
0.00624123
0.0064602
0.00646094
0.00645907
0.00645884
0.00665019
0.00665077
0.00664896
0.00664894
0.00681437
0.00681476
0.00681301
0.00681322
0.00695454
0.00695473
0.00695306
0.0069535
0.00707256
0.00707257
0.00707095
0.00707166
0.00717027
0.00717013
0.00716853
0.00716954
0.00724946
0.00724919
0.0072476
0.00724894
0.00731187
0.00731148
0.00730986
0.00731154
0.00735908
0.00735855
0.00735689
0.00735894
0.00739253
0.00739183
0.00739011
0.00739256
0.00741353
0.00741262
0.00741085
0.00741368
0.00742324
0.00742209
0.00742027
0.00742351
0.00742274
0.00742132
0.00741947
0.00742312
0.00741299
0.00741128
0.00740943
0.00741348
0.00739487
0.00739285
0.00739104
0.00739548
0.00736916
0.00736685
0.00736511
0.00736992
0.00733661
0.00733405
0.00733239
0.00733749
0.00729788
0.0072951
0.0072935
0.00729885
0.00725339
0.00725038
0.00724889
0.00725455
0.00720359
0.00720037
0.00719896
0.00720494
0.00714885
0.00714541
0.00714405
0.0071504
0.0070895
0.00708585
0.0070845
0.00709124
0.00702585
0.00702201
0.00702061
0.00702775
0.00695819
0.00695414
0.0069527
0.00696022
0.00688675
0.00688246
0.00688099
0.00688886
0.00681171
0.00680721
0.00680567
0.00681389
0.0067332
0.00672857
0.0067269
0.00673545
0.00665135
0.00664662
0.00664485
0.00665368
0.00656632
0.00656146
0.00655963
0.00656867
0.00647821
0.00647317
0.00647135
0.00648052
0.00638694
0.00638171
0.00638
0.0063892
0.00629246
0.00628711
0.00628546
0.0062947
0.00619485
0.0061895
0.00618784
0.00619708
0.00609423
0.00608884
0.0060872
0.00609644
0.00599067
0.00598513
0.00598363
0.00599284
0.00588421
0.00587857
0.00587711
0.00588636
0.00577487
0.00576913
0.00576779
0.00577703
0.00566271
0.00565684
0.00565583
0.00566487
0.00554777
0.00554182
0.0055411
0.00554995
0.00543012
0.00542412
0.00542355
0.00543234
0.00530979
0.00530377
0.00530316
0.00531207
0.0051868
0.00518079
0.0051799
0.00518918
0.00506106
0.0050553
0.0050539
0.00506365
0.00493285
0.00492706
0.00492549
0.00493547
0.00480186
0.00479643
0.00479448
0.00480474
0.00466831
0.00466322
0.00466107
0.00467145
0.00453237
0.00452735
0.00452531
0.0045356
0.00439428
0.0043887
0.00438716
0.00439721
0.0042537
0.00424762
0.00424669
0.0042563
0.00411057
0.00410426
0.00410384
0.00411294
0.00396498
0.00395864
0.00395852
0.0039672
0.00381699
0.0038108
0.00381083
0.00381909
0.00366667
0.00366082
0.00366097
0.00366858
0.0035141
0.00350908
0.00350892
0.00351579
0.00335927
0.00335539
0.00335473
0.00336091
0.00320234
0.00319953
0.00319858
0.00320405
0.00304342
0.00304159
0.00304041
0.00304534
0.00288275
0.00288171
0.00288038
0.00288495
0.00272062
0.00272009
0.00271879
0.00272304
0.00255729
0.00255705
0.00255587
0.00255985
0.00239308
0.00239298
0.00239192
0.00239573
0.00222831
0.00222834
0.00222727
0.00223109
0.00206311
0.00206374
0.00206198
0.00206657
0.00189875
0.00189979
0.00189749
0.00190272
0.00173642
0.00173736
0.00173515
0.00174035
0.00157752
0.00157736
0.0015759
0.00158058
0.00142273
0.00142195
0.00142127
0.00142482
0.0012733
0.00127253
0.00127242
0.00127496
0.00113157
0.00113093
0.00113108
0.00113308
0.0010003
0.000999742
0.000999966
0.00100164
0.000882577
0.000882056
0.000882245
0.000883647
0.000781876
0.000781314
0.000781412
0.000782595
0.000701818
0.000701057
0.000701104
0.00070223
0.000645764
0.000644587
0.000644853
0.000646163
0.000616841
0.000615399
0.000615766
0.000617297
)
;

boundaryField
{
    inlet
    {
        type            cyclic;
    }
    outlet
    {
        type            cyclic;
    }
    fixedWalls-bottom
    {
        type            kqRWallFunction;
        value           nonuniform List<scalar> 4(2.31058e-08 2.31392e-08 2.31408e-08 2.31351e-08);
    }
    fixedWalls-top
    {
        type            symmetry;
    }
    frontAndBack
    {
        type            empty;
    }
}


// ************************************************************************* //
