/*--------------------------------*- C++ -*----------------------------------*\
  =========                 |
  \\      /  F ield         | OpenFOAM: The Open Source CFD Toolbox
   \\    /   O peration     | Website:  https://openfoam.org
    \\  /    A nd           | Version:  10
     \\/     M anipulation  |
\*---------------------------------------------------------------------------*/
FoamFile
{
    format      ascii;
    class       volScalarField;
    location    "2941";
    object      omega;
}
// * * * * * * * * * * * * * * * * * * * * * * * * * * * * * * * * * * * * * //

dimensions      [0 0 -1 0 0 0 0];

internalField   nonuniform List<scalar> 
400
(
10084.1
10084.1
10084.1
10084.1
1724.87
1724.87
1724.87
1724.87
580.438
580.438
580.438
580.438
273.173
273.172
273.172
273.173
155.334
155.332
155.331
155.332
99.6643
99.6587
99.6581
99.6589
69.6545
69.6449
69.6441
69.6453
51.9624
51.9481
51.9473
51.9487
40.8216
40.803
40.8026
40.8039
33.4178
33.396
33.3967
33.3968
28.249
28.2264
28.2264
28.2264
24.4638
24.4418
24.4416
24.4415
21.5603
21.5402
21.5404
21.5402
19.2369
19.2199
19.2208
19.2206
17.3113
17.2981
17.3
17.2997
15.6731
15.6639
15.6671
15.6668
14.2549
14.2495
14.2541
14.2537
13.014
13.0118
13.0176
13.0173
11.9199
11.9199
11.927
11.9266
10.9511
10.9528
10.9608
10.9604
10.093
10.0957
10.1043
10.1037
9.33402
9.33709
9.34575
9.34513
8.66418
8.66723
8.67542
8.67469
8.07443
8.0771
8.08441
8.08342
7.55611
7.55813
7.56439
7.5627
7.10053
7.10204
7.10752
7.10502
6.70015
6.70142
6.70628
6.70322
6.34817
6.34944
6.35369
6.35019
6.03833
6.04022
6.04323
6.03943
5.76459
5.7675
5.76923
5.76519
5.52324
5.52576
5.52657
5.52203
5.30869
5.31077
5.3107
5.30555
5.11676
5.11811
5.11765
5.11173
4.94381
4.9448
4.94385
4.93722
4.78731
4.78807
4.78665
4.77931
4.64511
4.64569
4.6439
4.63588
4.51513
4.51563
4.5136
4.50497
4.3954
4.3959
4.39384
4.38463
4.28441
4.2848
4.28315
4.27322
4.18131
4.18204
4.17986
4.16961
4.08506
4.0865
4.0832
4.07276
3.99482
3.99636
3.99275
3.98183
3.90991
3.91147
3.90762
3.89625
3.8298
3.83152
3.82718
3.81551
3.75406
3.75565
3.75111
3.73916
3.6824
3.68351
3.67908
3.66676
3.6145
3.61449
3.61076
3.59789
3.5499
3.54749
3.54608
3.53212
3.48729
3.48542
3.48325
3.46904
3.42653
3.42724
3.42261
3.4082
3.3685
3.36901
3.36517
3.34932
3.31314
3.3111
3.31055
3.29201
3.26093
3.25642
3.25671
3.23636
3.20737
3.204
3.20324
3.18261
3.15312
3.15361
3.15047
3.13037
3.10267
3.1046
3.09702
3.07986
3.05351
3.0545
3.04771
3.02953
3.00585
3.00153
2.99932
2.98062
2.95766
2.95428
2.95146
2.9322
2.9092
2.91112
2.90431
2.88438
2.8629
2.86306
2.86075
2.83693
2.81845
2.81927
2.81431
2.79112
2.77509
2.77757
2.76299
2.74806
2.7321
2.73361
2.71733
2.70427
2.6894
2.69074
2.67487
2.66053
2.6473
2.64885
2.63583
2.61688
2.6069
2.60744
2.60051
2.57309
2.57147
2.56291
2.5646
2.53022
2.52723
2.52885
2.52032
2.48991
2.49727
2.48102
2.48583
2.44719
2.45959
2.44281
2.44484
2.40749
2.41956
2.407
2.40533
2.3689
2.37253
2.37863
2.36652
2.3315
2.33584
2.34253
2.32609
2.29573
2.30003
2.307
2.28875
2.2593
2.26457
2.27213
2.25485
2.22274
2.2293
2.23775
2.2195
2.18845
2.19422
2.20187
2.18141
2.15757
2.16002
2.15546
2.14926
2.12635
2.12961
2.11785
2.11601
2.09379
2.09748
2.08572
2.0824
2.06335
2.06848
2.05414
2.05447
2.03182
2.039
2.02395
2.02532
2.00136
2.00994
1.99443
1.99625
1.97168
1.98191
1.96544
1.96825
1.94229
1.95578
1.93674
1.9421
1.91205
1.93426
1.9076
1.92049
1.88045
1.92706
1.87706
1.91704
1.84299
1.90009
1.85324
1.8876
1.81461
1.86928
1.83306
1.85257
1.78955
1.82261
1.82669
1.81543
1.77006
1.80081
1.78608
1.77222
1.75444
1.78472
1.76389
1.74853
1.73355
1.76639
1.74447
1.72874
1.7141
1.7475
1.72609
1.71113
1.69651
1.72816
1.7085
1.69571
1.68051
1.70809
1.69223
1.68195
1.6643
1.68944
1.68169
1.66598
1.64546
1.68478
1.70086
1.63893
1.62225
1.66363
1.68138
1.61407
1.58725
)
;

boundaryField
{
    inlet
    {
        type            cyclic;
    }
    outlet
    {
        type            cyclic;
    }
    fixedWalls-bottom
    {
        beta1           0.075;
        blended         0;
        type            omegaWallFunction;
        value           uniform 10084.1;
    }
    fixedWalls-top
    {
        type            symmetry;
    }
    frontAndBack
    {
        type            empty;
    }
}


// ************************************************************************* //
