/*--------------------------------*- C++ -*----------------------------------*\
  =========                 |
  \\      /  F ield         | OpenFOAM: The Open Source CFD Toolbox
   \\    /   O peration     | Website:  https://openfoam.org
    \\  /    A nd           | Version:  10
     \\/     M anipulation  |
\*---------------------------------------------------------------------------*/
FoamFile
{
    format      ascii;
    class       volScalarField;
    location    "2941";
    object      p;
}
// * * * * * * * * * * * * * * * * * * * * * * * * * * * * * * * * * * * * * //

dimensions      [0 2 -2 0 0 0 0];

internalField   nonuniform List<scalar> 
400
(
-6.66992e-12
-2.51606e-06
-6.91886e-06
-4.41673e-06
-1.7486e-09
-2.51849e-06
-6.91714e-06
-4.4143e-06
-3.47765e-09
-2.52127e-06
-6.91542e-06
-4.41152e-06
-4.78225e-09
-2.52394e-06
-6.91411e-06
-4.40885e-06
-5.64071e-09
-2.52654e-06
-6.91325e-06
-4.40626e-06
-6.02269e-09
-2.52914e-06
-6.91287e-06
-4.40365e-06
-5.84282e-09
-2.53174e-06
-6.91305e-06
-4.40105e-06
-4.98121e-09
-2.53428e-06
-6.91391e-06
-4.39851e-06
-3.28912e-09
-2.53659e-06
-6.9156e-06
-4.3962e-06
-5.8946e-10
-2.53836e-06
-6.9183e-06
-4.39443e-06
3.30511e-09
-2.53914e-06
-6.9222e-06
-4.39365e-06
8.62515e-09
-2.53849e-06
-6.92751e-06
-4.39431e-06
1.57042e-08
-2.53622e-06
-6.93459e-06
-4.39658e-06
2.50158e-08
-2.53271e-06
-6.9439e-06
-4.40009e-06
3.7196e-08
-2.52901e-06
-6.95608e-06
-4.40379e-06
5.30598e-08
-2.52686e-06
-6.97195e-06
-4.40594e-06
7.36567e-08
-2.52857e-06
-6.99255e-06
-4.40423e-06
1.00227e-07
-2.5366e-06
-7.01912e-06
-4.39621e-06
1.33035e-07
-2.55139e-06
-7.05193e-06
-4.38142e-06
1.67572e-07
-2.5659e-06
-7.08647e-06
-4.36691e-06
2.01607e-07
-2.57655e-06
-7.1205e-06
-4.35627e-06
2.37922e-07
-2.58754e-06
-7.15681e-06
-4.34528e-06
2.7721e-07
-2.6003e-06
-7.1961e-06
-4.33252e-06
3.19028e-07
-2.61469e-06
-7.23792e-06
-4.31813e-06
3.62849e-07
-2.63045e-06
-7.28174e-06
-4.30238e-06
4.08313e-07
-2.64753e-06
-7.3272e-06
-4.28529e-06
4.55209e-07
-2.66607e-06
-7.37409e-06
-4.26676e-06
5.03415e-07
-2.68619e-06
-7.42229e-06
-4.24664e-06
5.52832e-07
-2.70799e-06
-7.47171e-06
-4.22485e-06
6.03377e-07
-2.73139e-06
-7.52225e-06
-4.20145e-06
6.55042e-07
-2.75622e-06
-7.57391e-06
-4.17662e-06
7.07853e-07
-2.78231e-06
-7.62672e-06
-4.15054e-06
7.61774e-07
-2.80952e-06
-7.68064e-06
-4.12334e-06
8.16847e-07
-2.83765e-06
-7.7357e-06
-4.09521e-06
8.73366e-07
-2.86631e-06
-7.79222e-06
-4.06655e-06
9.32014e-07
-2.89487e-06
-7.85086e-06
-4.03801e-06
9.94052e-07
-2.92244e-06
-7.91289e-06
-4.01044e-06
1.06166e-06
-2.948e-06
-7.98049e-06
-3.98489e-06
1.13862e-06
-2.97082e-06
-8.05744e-06
-3.96207e-06
1.23168e-06
-2.9916e-06
-8.1505e-06
-3.94125e-06
1.3509e-06
-3.01391e-06
-8.2697e-06
-3.91887e-06
1.49997e-06
-3.0439e-06
-8.41873e-06
-3.88884e-06
1.64314e-06
-3.08404e-06
-8.56187e-06
-3.84892e-06
1.68151e-06
-3.12252e-06
-8.60027e-06
-3.81086e-06
1.60711e-06
-3.15231e-06
-8.52589e-06
-3.78135e-06
1.5048e-06
-3.17846e-06
-8.42356e-06
-3.75526e-06
1.40535e-06
-3.20231e-06
-8.32409e-06
-3.73138e-06
1.31433e-06
-3.22514e-06
-8.23306e-06
-3.70853e-06
1.22092e-06
-3.24797e-06
-8.13963e-06
-3.68573e-06
1.10345e-06
-3.27298e-06
-8.02214e-06
-3.66077e-06
9.63732e-07
-3.3055e-06
-7.8824e-06
-3.62823e-06
8.20416e-07
-3.34718e-06
-7.73907e-06
-3.58647e-06
6.73524e-07
-3.38584e-06
-7.59216e-06
-3.54776e-06
5.10659e-07
-3.41965e-06
-7.42928e-06
-3.51392e-06
3.23497e-07
-3.46288e-06
-7.2421e-06
-3.47063e-06
1.10022e-07
-3.49928e-06
-7.0286e-06
-3.43417e-06
-1.14355e-07
-3.51724e-06
-6.80421e-06
-3.41624e-06
-3.1435e-07
-3.52655e-06
-6.6042e-06
-3.40701e-06
-4.99128e-07
-3.53432e-06
-6.41942e-06
-3.39937e-06
-7.20868e-07
-3.55863e-06
-6.19763e-06
-3.37508e-06
-9.74733e-07
-3.61583e-06
-5.94372e-06
-3.31761e-06
-1.24382e-06
-3.67684e-06
-5.67466e-06
-3.2562e-06
-1.53598e-06
-3.66856e-06
-5.38257e-06
-3.26449e-06
-1.83964e-06
-3.58084e-06
-5.07891e-06
-3.35276e-06
-2.15055e-06
-3.47056e-06
-4.76793e-06
-3.46379e-06
-2.48211e-06
-3.39004e-06
-4.43626e-06
-3.54486e-06
-2.84195e-06
-3.3727e-06
-4.07634e-06
-3.56219e-06
-3.2156e-06
-3.3955e-06
-3.70264e-06
-3.53899e-06
-3.62016e-06
-3.41818e-06
-3.29805e-06
-3.51588e-06
-4.03026e-06
-3.40326e-06
-2.88795e-06
-3.53074e-06
-4.41802e-06
-3.32815e-06
-2.50029e-06
-3.60636e-06
-4.83682e-06
-3.23842e-06
-2.08148e-06
-3.69678e-06
-5.3396e-06
-3.21273e-06
-1.57854e-06
-3.72234e-06
-5.90447e-06
-3.22081e-06
-1.01355e-06
-3.71333e-06
-6.4783e-06
-3.19528e-06
-4.39628e-07
-3.7379e-06
-7.06617e-06
-3.16361e-06
1.48407e-07
-3.76851e-06
-7.66279e-06
-3.14036e-06
7.45283e-07
-3.79072e-06
-8.21074e-06
-3.10055e-06
1.29351e-06
-3.83031e-06
-8.60672e-06
-3.0483e-06
1.68959e-06
-3.8832e-06
-8.85082e-06
-2.98355e-06
1.93362e-06
-3.94882e-06
-9.03527e-06
-2.89279e-06
2.11799e-06
-4.04035e-06
-9.20384e-06
-2.79847e-06
2.28652e-06
-4.13526e-06
-9.36731e-06
-2.71436e-06
2.45005e-06
-4.21981e-06
-9.52533e-06
-2.63512e-06
2.60816e-06
-4.2994e-06
-9.67785e-06
-2.55773e-06
2.76077e-06
-4.37711e-06
-9.83173e-06
-2.48279e-06
2.91472e-06
-4.45238e-06
-9.99976e-06
-2.41511e-06
3.08281e-06
-4.52038e-06
-1.02037e-05
-2.37293e-06
3.28685e-06
-4.56269e-06
-1.0449e-05
-2.34285e-06
3.53218e-06
-4.59261e-06
-1.07275e-05
-2.29984e-06
3.81087e-06
-4.6352e-06
-1.10359e-05
-2.28166e-06
4.11948e-06
-4.65271e-06
-1.12729e-05
-2.22459e-06
4.35683e-06
-4.70976e-06
-1.14028e-05
-2.08092e-06
4.48673e-06
-4.85405e-06
-1.14989e-05
-1.93017e-06
4.58304e-06
-5.00532e-06
-1.15762e-05
-1.80957e-06
4.66039e-06
-5.12619e-06
-1.16308e-05
-1.72581e-06
4.71505e-06
-5.21006e-06
-1.16652e-05
-1.67693e-06
4.74936e-06
-5.25899e-06
-1.16955e-05
-1.65089e-06
4.7797e-06
-5.28504e-06
-1.17464e-05
-1.62768e-06
4.83071e-06
-5.30822e-06
-1.18002e-05
-1.60716e-06
4.88473e-06
-5.32869e-06
)
;

boundaryField
{
    inlet
    {
        type            cyclic;
    }
    outlet
    {
        type            cyclic;
    }
    fixedWalls-bottom
    {
        type            zeroGradient;
    }
    fixedWalls-top
    {
        type            symmetry;
    }
    frontAndBack
    {
        type            empty;
    }
}


// ************************************************************************* //
