/*--------------------------------*- C++ -*----------------------------------*\
  =========                 |
  \\      /  F ield         | OpenFOAM: The Open Source CFD Toolbox
   \\    /   O peration     | Website:  https://openfoam.org
    \\  /    A nd           | Version:  10
     \\/     M anipulation  |
\*---------------------------------------------------------------------------*/
FoamFile
{
    format      ascii;
    class       volSymmTensorField;
    location    "2941";
    object      R;
}
// * * * * * * * * * * * * * * * * * * * * * * * * * * * * * * * * * * * * * //

dimensions      [0 2 -2 0 0 0 0];

internalField   nonuniform List<symmTensor> 
400
(
(1.54038e-08 -1.43239e-11 -0 1.54038e-08 -0 1.54038e-08)
(1.54261e-08 -1.43466e-11 -0 1.54261e-08 -0 1.54261e-08)
(1.54272e-08 -1.43476e-11 -0 1.54272e-08 -0 1.54272e-08)
(1.54234e-08 -1.43425e-11 -0 1.54234e-08 -0 1.54234e-08)
(4.62161e-07 -2.50081e-09 -0 4.62161e-07 -0 4.62161e-07)
(4.6283e-07 -2.50474e-09 -0 4.6283e-07 -0 4.6283e-07)
(4.62863e-07 -2.50494e-09 -0 4.62863e-07 -0 4.62863e-07)
(4.62749e-07 -2.50408e-09 -0 4.62749e-07 -0 4.62749e-07)
(3.27274e-06 -5.23748e-08 -0 3.27274e-06 -0 3.27274e-06)
(3.27748e-06 -5.24569e-08 -0 3.27748e-06 -0 3.27748e-06)
(3.27771e-06 -5.24612e-08 -0 3.27771e-06 -0 3.27771e-06)
(3.2769e-06 -5.24436e-08 -0 3.2769e-06 -0 3.2769e-06)
(1.18936e-05 -4.02421e-07 -0 1.18936e-05 -0 1.18936e-05)
(1.19108e-05 -4.03051e-07 -0 1.19108e-05 -0 1.19108e-05)
(1.19117e-05 -4.03086e-07 -0 1.19117e-05 -0 1.19117e-05)
(1.19087e-05 -4.02953e-07 -0 1.19087e-05 -0 1.19087e-05)
(3.07382e-05 -1.8192e-06 -0 3.07382e-05 -0 3.07382e-05)
(3.0783e-05 -1.82207e-06 -0 3.0783e-05 -0 3.0783e-05)
(3.0785e-05 -1.82223e-06 -0 3.0785e-05 -0 3.0785e-05)
(3.07774e-05 -1.82164e-06 -0 3.07773e-05 -0 3.07774e-05)
(6.49201e-05 -5.95125e-06 -0 6.49202e-05 -0 6.49201e-05)
(6.50151e-05 -5.96088e-06 -0 6.50152e-05 -0 6.50152e-05)
(6.5019e-05 -5.96138e-06 -0 6.50189e-05 -0 6.5019e-05)
(6.50028e-05 -5.95946e-06 -0 6.50027e-05 -0 6.50028e-05)
(0.000120006 -1.56188e-05 -0 0.000120006 -0 0.000120006)
(0.000120182 -1.56453e-05 -0 0.000120182 -0 0.000120182)
(0.000120188 -1.56465e-05 -0 0.000120187 -0 0.000120187)
(0.000120158 -1.56414e-05 -0 0.000120157 -0 0.000120158)
(0.00020162 -3.48141e-05 -0 0.000201621 -0 0.000201621)
(0.000201916 -3.48776e-05 -0 0.000201916 -0 0.000201916)
(0.000201922 -3.48795e-05 -0 0.000201922 -0 0.000201922)
(0.000201872 -3.48681e-05 -0 0.000201871 -0 0.000201872)
(0.00031484 -6.82313e-05 -0 0.00031484 -0 0.00031484)
(0.000315295 -6.83661e-05 -0 0.000315296 -0 0.000315296)
(0.000315298 -6.83674e-05 -0 0.000315297 -0 0.000315298)
(0.00031522 -6.83453e-05 -0 0.000315219 -0 0.00031522)
(0.000463394 -0.00012035 -0 0.000463396 -0 0.000463395)
(0.000464045 -0.000120604 -0 0.000464047 -0 0.000464046)
(0.000464037 -0.000120598 -0 0.000464035 -0 0.000464036)
(0.000463923 -0.000120563 -0 0.00046392 -0 0.000463921)
(0.000648857 -0.00019438 -0 0.000648859 -0 0.000648858)
(0.000649721 -0.000194798 -0 0.000649726 -0 0.000649723)
(0.00064969 -0.000194784 -0 0.000649688 -0 0.000649689)
(0.000649529 -0.000194729 -0 0.000649525 -0 0.000649527)
(0.000870054 -0.000291454 -0 0.000870059 -0 0.000870056)
(0.000871125 -0.000292071 -0 0.000871132 -0 0.000871128)
(0.000871051 -0.000292034 -0 0.000871046 -0 0.000871049)
(0.000870832 -0.000291956 -0 0.000870825 -0 0.000870829)
(0.00112293 -0.000410355 -0 0.00112293 -0 0.00112293)
(0.00112417 -0.000411167 -0 0.00112418 -0 0.00112417)
(0.00112402 -0.000411087 -0 0.00112401 -0 0.00112402)
(0.00112373 -0.00041098 -0 0.00112372 -0 0.00112373)
(0.00140091 -0.000547752 -0 0.00140092 -0 0.00140092)
(0.00140226 -0.000548711 -0 0.00140227 -0 0.00140226)
(0.001402 -0.000548554 -0 0.00140199 -0 0.001402)
(0.00140164 -0.000548419 -0 0.00140163 -0 0.00140164)
(0.00169577 -0.000698802 -0 0.00169578 -0 0.00169577)
(0.00169714 -0.000699819 -0 0.00169716 -0 0.00169715)
(0.00169675 -0.000699545 -0 0.00169674 -0 0.00169675)
(0.00169631 -0.000699383 -0 0.0016963 -0 0.00169631)
(0.0019986 -0.000857891 -0 0.00199862 -0 0.00199861)
(0.00199995 -0.000858866 -0 0.00199996 -0 0.00199995)
(0.0019994 -0.000858434 -0 0.00199938 -0 0.00199939)
(0.00199888 -0.000858253 -0 0.00199886 -0 0.00199887)
(0.00230089 -0.00101938 -0 0.00230091 -0 0.0023009)
(0.00230216 -0.00102023 -0 0.00230218 -0 0.00230217)
(0.00230145 -0.0010196 -0 0.00230142 -0 0.00230144)
(0.00230086 -0.00101942 -0 0.00230084 -0 0.00230085)
(0.00259524 -0.00117824 -0 0.00259527 -0 0.00259526)
(0.00259644 -0.00117888 -0 0.00259645 -0 0.00259644)
(0.00259557 -0.00117807 -0 0.00259554 -0 0.00259556)
(0.00259492 -0.00117787 -0 0.00259491 -0 0.00259491)
(0.00287586 -0.00133258 -0 0.00287589 -0 0.00287587)
(0.00287697 -0.00133302 -0 0.00287699 -0 0.00287698)
(0.00287599 -0.0013319 -0 0.00287596 -0 0.00287597)
(0.00287531 -0.00133173 -0 0.00287529 -0 0.0028753)
(0.003139 -0.00145964 -0 0.00313903 -0 0.00313901)
(0.00314003 -0.00146012 -0 0.00314005 -0 0.00314004)
(0.00313896 -0.00145961 -0 0.00313894 -0 0.00313895)
(0.00313828 -0.00145929 -0 0.00313825 -0 0.00313826)
(0.00338355 -0.00157336 -0 0.00338357 -0 0.00338356)
(0.00338449 -0.00157379 -0 0.00338451 -0 0.0033845)
(0.00338333 -0.00157324 -0 0.00338331 -0 0.00338332)
(0.00338267 -0.00157293 -0 0.00338264 -0 0.00338265)
(0.00360849 -0.00167796 -0 0.00360852 -0 0.00360851)
(0.00360934 -0.00167835 -0 0.00360937 -0 0.00360936)
(0.00360813 -0.00167777 -0 0.0036081 -0 0.00360811)
(0.00360751 -0.00167749 -0 0.00360749 -0 0.0036075)
(0.00381318 -0.00177314 -0 0.0038132 -0 0.00381319)
(0.00381394 -0.00177349 -0 0.00381397 -0 0.00381396)
(0.00381269 -0.0017729 -0 0.00381267 -0 0.00381268)
(0.00381216 -0.00177265 -0 0.00381213 -0 0.00381214)
(0.00399749 -0.00185885 -0 0.00399752 -0 0.0039975)
(0.00399817 -0.00185916 -0 0.0039982 -0 0.00399819)
(0.00399691 -0.00185857 -0 0.00399689 -0 0.0039969)
(0.00399648 -0.00185837 -0 0.00399646 -0 0.00399647)
(0.00416179 -0.00193526 -0 0.00416181 -0 0.0041618)
(0.00416238 -0.00193553 -0 0.00416241 -0 0.00416239)
(0.00416114 -0.00193494 -0 0.00416111 -0 0.00416112)
(0.00416083 -0.0019348 -0 0.00416081 -0 0.00416082)
(0.00430679 -0.0020027 -0 0.00430681 -0 0.0043068)
(0.00430728 -0.00200293 -0 0.0043073 -0 0.00430729)
(0.00430606 -0.00200236 -0 0.00430604 -0 0.00430605)
(0.0043059 -0.00200228 -0 0.00430588 -0 0.00430589)
(0.00443345 -0.00206165 -0 0.00443347 -0 0.00443346)
(0.00443383 -0.00206183 -0 0.00443386 -0 0.00443384)
(0.00443265 -0.00206127 -0 0.00443262 -0 0.00443264)
(0.00443264 -0.00206126 -0 0.00443262 -0 0.00443263)
(0.0045429 -0.00211265 -0 0.00454293 -0 0.00454291)
(0.00454316 -0.00211277 -0 0.00454318 -0 0.00454317)
(0.00454202 -0.00211223 -0 0.00454199 -0 0.00454201)
(0.00454216 -0.00211229 -0 0.00454214 -0 0.00454215)
(0.00463635 -0.0021563 -0 0.00463638 -0 0.00463636)
(0.00463648 -0.00215636 -0 0.0046365 -0 0.00463649)
(0.00463538 -0.00215585 -0 0.00463536 -0 0.00463537)
(0.00463568 -0.00215598 -0 0.00463566 -0 0.00463567)
(0.00471502 -0.00219328 -0 0.00471506 -0 0.00471504)
(0.00471503 -0.00219329 -0 0.00471506 -0 0.00471505)
(0.00471398 -0.00219279 -0 0.00471395 -0 0.00471396)
(0.00471445 -0.002193 -0 0.00471443 -0 0.00471444)
(0.00478016 -0.0022243 -0 0.0047802 -0 0.00478018)
(0.00478007 -0.00222426 -0 0.0047801 -0 0.00478008)
(0.00477904 -0.00222377 -0 0.004779 -0 0.00477902)
(0.00477971 -0.00222407 -0 0.00477968 -0 0.00477969)
(0.00483295 -0.00224933 -0 0.004833 -0 0.00483297)
(0.00483278 -0.00224926 -0 0.00483281 -0 0.0048328)
(0.00483175 -0.00224877 -0 0.00483171 -0 0.00483173)
(0.00483264 -0.00224915 -0 0.00483261 -0 0.00483262)
(0.00487455 -0.00226862 -0 0.0048746 -0 0.00487458)
(0.00487431 -0.00226851 -0 0.00487433 -0 0.00487432)
(0.00487326 -0.00226801 -0 0.00487321 -0 0.00487324)
(0.00487437 -0.00226849 -0 0.00487435 -0 0.00487436)
(0.00490603 -0.00228328 -0 0.00490608 -0 0.00490605)
(0.00490569 -0.00228312 -0 0.00490571 -0 0.0049057)
(0.00490462 -0.0022826 -0 0.00490456 -0 0.00490459)
(0.00490597 -0.00228319 -0 0.00490595 -0 0.00490596)
(0.00492832 -0.00229373 -0 0.00492839 -0 0.00492835)
(0.00492788 -0.00229352 -0 0.0049279 -0 0.00492789)
(0.00492678 -0.00229298 -0 0.00492671 -0 0.00492674)
(0.00492838 -0.00229369 -0 0.00492837 -0 0.00492837)
(0.00494231 -0.0023004 -0 0.00494239 -0 0.00494235)
(0.00494175 -0.00230012 -0 0.00494175 -0 0.00494175)
(0.0049406 -0.00229956 -0 0.00494053 -0 0.00494056)
(0.00494246 -0.00230038 -0 0.00494246 -0 0.00494246)
(0.00494879 -0.00230363 -0 0.00494887 -0 0.00494883)
(0.00494807 -0.00230328 -0 0.00494805 -0 0.00494806)
(0.00494689 -0.00230271 -0 0.00494681 -0 0.00494685)
(0.004949 -0.00230364 -0 0.00494902 -0 0.00494901)
(0.00494845 -0.00230378 -0 0.00494853 -0 0.00494849)
(0.00494757 -0.00230335 -0 0.00494752 -0 0.00494755)
(0.00494635 -0.00230276 -0 0.00494627 -0 0.00494631)
(0.00494872 -0.0023038 -0 0.00494877 -0 0.00494875)
(0.00494196 -0.00230114 -0 0.00494203 -0 0.00494199)
(0.0049409 -0.00230062 -0 0.00494081 -0 0.00494085)
(0.00493965 -0.00230003 -0 0.00493959 -0 0.00493962)
(0.00494228 -0.00230118 -0 0.00494237 -0 0.00494232)
(0.0049299 -0.00229601 -0 0.00492992 -0 0.00492991)
(0.00492864 -0.0022954 -0 0.0049285 -0 0.00492857)
(0.00492737 -0.00229481 -0 0.00492735 -0 0.00492736)
(0.00493025 -0.00229605 -0 0.00493039 -0 0.00493032)
(0.00491281 -0.00228864 -0 0.00491274 -0 0.00491278)
(0.00491133 -0.00228795 -0 0.00491114 -0 0.00491123)
(0.00491004 -0.00228737 -0 0.00491011 -0 0.00491007)
(0.00491318 -0.00228869 -0 0.00491337 -0 0.00491328)
(0.00489118 -0.00227928 -0 0.00489097 -0 0.00489108)
(0.00488949 -0.00227852 -0 0.00488925 -0 0.00488937)
(0.00488816 -0.00227795 -0 0.00488836 -0 0.00488825)
(0.00489154 -0.00227933 -0 0.00489178 -0 0.00489166)
(0.00486542 -0.00226816 -0 0.00486509 -0 0.00486525)
(0.00486353 -0.00226734 -0 0.00486326 -0 0.0048634)
(0.00486216 -0.00226677 -0 0.0048625 -0 0.00486234)
(0.00486577 -0.00226819 -0 0.00486604 -0 0.0048659)
(0.00483578 -0.00224874 -0 0.00483541 -0 0.00483559)
(0.00483373 -0.0022473 -0 0.00483345 -0 0.00483359)
(0.0048324 -0.00224875 -0 0.00483278 -0 0.0048326)
(0.00483623 -0.00225546 -0 0.00483651 -0 0.00483637)
(0.00480254 -0.00222906 -0 0.00480224 -0 0.0048024)
(0.00480039 -0.00222814 -0 0.0048001 -0 0.00480025)
(0.00479915 -0.0022295 -0 0.00479946 -0 0.0047993)
(0.00480315 -0.00223654 -0 0.00480344 -0 0.0048033)
(0.004766 -0.00220837 -0 0.00476579 -0 0.0047659)
(0.00476375 -0.00220762 -0 0.00476347 -0 0.00476361)
(0.0047626 -0.0022092 -0 0.0047628 -0 0.0047627)
(0.00476679 -0.0022168 -0 0.00476707 -0 0.00476693)
(0.0047264 -0.00218641 -0 0.00472626 -0 0.00472633)
(0.00472403 -0.00218582 -0 0.00472376 -0 0.0047239)
(0.00472293 -0.00218753 -0 0.00472307 -0 0.004723)
(0.00472736 -0.002196 -0 0.00472763 -0 0.00472749)
(0.00468395 -0.0021632 -0 0.00468385 -0 0.0046839)
(0.00468147 -0.00216345 -0 0.00468121 -0 0.00468134)
(0.00468036 -0.00216432 -0 0.00468046 -0 0.00468041)
(0.00468504 -0.00217393 -0 0.0046853 -0 0.00468517)
(0.00463883 -0.00213915 -0 0.00463875 -0 0.00463879)
(0.00463622 -0.00213915 -0 0.00463597 -0 0.00463609)
(0.00463509 -0.00214037 -0 0.00463517 -0 0.00463513)
(0.00464002 -0.00215068 -0 0.00464027 -0 0.00464014)
(0.0045912 -0.00211427 -0 0.00459113 -0 0.00459117)
(0.00458842 -0.00211321 -0 0.00458819 -0 0.0045883)
(0.00458729 -0.00211547 -0 0.00458736 -0 0.00458733)
(0.00459246 -0.00212638 -0 0.00459269 -0 0.00459257)
(0.00454116 -0.00208818 -0 0.00454111 -0 0.00454114)
(0.00453824 -0.00208714 -0 0.00453804 -0 0.00453814)
(0.00453709 -0.00208919 -0 0.00453714 -0 0.00453711)
(0.00454249 -0.00210105 -0 0.00454269 -0 0.00454259)
(0.00448882 -0.00206108 -0 0.00448878 -0 0.0044888)
(0.0044858 -0.0020607 -0 0.00448563 -0 0.00448571)
(0.00448458 -0.0020616 -0 0.00448462 -0 0.0044846)
(0.00449021 -0.00207484 -0 0.00449039 -0 0.0044903)
(0.00443426 -0.00203224 -0 0.00443421 -0 0.00443424)
(0.00443116 -0.00203264 -0 0.00443101 -0 0.00443108)
(0.00442987 -0.00203346 -0 0.00442992 -0 0.0044299)
(0.00443571 -0.00204764 -0 0.00443586 -0 0.00443578)
(0.00437758 -0.00200361 -0 0.00437752 -0 0.00437755)
(0.00437437 -0.0020036 -0 0.00437425 -0 0.00437431)
(0.00437306 -0.00200479 -0 0.00437311 -0 0.00437309)
(0.00437905 -0.00201932 -0 0.00437918 -0 0.00437912)
(0.00431883 -0.00197494 -0 0.00431878 -0 0.00431881)
(0.00431549 -0.0019735 -0 0.00431539 -0 0.00431544)
(0.0043142 -0.00197524 -0 0.00431426 -0 0.00431423)
(0.0043203 -0.00199008 -0 0.0043204 -0 0.00432035)
(0.00425797 -0.00194419 -0 0.00425794 -0 0.00425796)
(0.00425451 -0.00194235 -0 0.00425444 -0 0.00425448)
(0.00425331 -0.00194587 -0 0.00425334 -0 0.00425333)
(0.00425943 -0.00195964 -0 0.00425951 -0 0.00425947)
(0.00419498 -0.00191288 -0 0.00419497 -0 0.00419497)
(0.00419145 -0.00191083 -0 0.00419137 -0 0.00419141)
(0.0041903 -0.00191417 -0 0.00419032 -0 0.00419031)
(0.00419643 -0.00192883 -0 0.0041965 -0 0.00419646)
(0.00412992 -0.00188038 -0 0.00412988 -0 0.0041299)
(0.00412638 -0.00188034 -0 0.00412629 -0 0.00412634)
(0.00412521 -0.00188195 -0 0.00412524 -0 0.00412522)
(0.00413134 -0.0018969 -0 0.00413143 -0 0.00413139)
(0.00406286 -0.00184754 -0 0.00406278 -0 0.00406281)
(0.00405928 -0.001847 -0 0.00405918 -0 0.00405923)
(0.00405809 -0.00184913 -0 0.00405817 -0 0.00405814)
(0.00406424 -0.00186436 -0 0.00406435 -0 0.00406429)
(0.00399384 -0.00181429 -0 0.00399372 -0 0.00399378)
(0.00399014 -0.00181142 -0 0.00399004 -0 0.00399009)
(0.00398902 -0.00181595 -0 0.00398914 -0 0.00398908)
(0.00399518 -0.00183101 -0 0.00399528 -0 0.00399523)
(0.00392287 -0.00177968 -0 0.00392274 -0 0.00392281)
(0.00391907 -0.00177809 -0 0.00391903 -0 0.00391904)
(0.00391801 -0.0017805 -0 0.00391814 -0 0.00391807)
(0.00392422 -0.00179706 -0 0.00392426 -0 0.00392425)
(0.00384998 -0.00174404 -0 0.00384985 -0 0.00384991)
(0.00384607 -0.00174215 -0 0.0038461 -0 0.00384609)
(0.00384513 -0.00174543 -0 0.00384526 -0 0.0038452)
(0.00385137 -0.00176201 -0 0.00385134 -0 0.00385135)
(0.0037752 -0.00170756 -0 0.00377508 -0 0.00377514)
(0.00377121 -0.00170502 -0 0.00377124 -0 0.00377123)
(0.00377049 -0.00171196 -0 0.00377061 -0 0.00377055)
(0.0037766 -0.00172522 -0 0.00377656 -0 0.00377657)
(0.00369856 -0.00167039 -0 0.00369847 -0 0.00369851)
(0.00369457 -0.00166849 -0 0.00369453 -0 0.00369455)
(0.00369402 -0.00167527 -0 0.00369411 -0 0.00369407)
(0.00369994 -0.0016885 -0 0.00369999 -0 0.00369997)
(0.00362011 -0.00163247 -0 0.00362005 -0 0.00362008)
(0.00361616 -0.00163073 -0 0.00361601 -0 0.00361608)
(0.00361567 -0.00163745 -0 0.00361574 -0 0.0036157)
(0.00362149 -0.00165131 -0 0.00362163 -0 0.00362156)
(0.00353988 -0.00159378 -0 0.00353984 -0 0.00353986)
(0.00353595 -0.00159213 -0 0.00353575 -0 0.00353584)
(0.00353542 -0.00159815 -0 0.00353546 -0 0.00353544)
(0.00354128 -0.00161369 -0 0.00354149 -0 0.00354139)
(0.00345788 -0.0015543 -0 0.00345785 -0 0.00345787)
(0.00345396 -0.00155252 -0 0.00345377 -0 0.00345386)
(0.00345325 -0.00155689 -0 0.00345329 -0 0.00345327)
(0.00345935 -0.00157571 -0 0.00345955 -0 0.00345945)
(0.00337406 -0.00151146 -0 0.00337402 -0 0.00337404)
(0.00337027 -0.00151468 -0 0.00337014 -0 0.0033702)
(0.00336925 -0.00151467 -0 0.00336929 -0 0.00336927)
(0.0033757 -0.00153687 -0 0.00337583 -0 0.00337577)
(0.00328858 -0.00147334 -0 0.00328855 -0 0.00328857)
(0.00328474 -0.00147044 -0 0.00328467 -0 0.00328471)
(0.00328364 -0.00147601 -0 0.00328368 -0 0.00328366)
(0.00329028 -0.00149599 -0 0.00329035 -0 0.00329031)
(0.00320127 -0.00142753 -0 0.00320121 -0 0.00320125)
(0.00319765 -0.00143277 -0 0.00319759 -0 0.00319762)
(0.00319629 -0.00143151 -0 0.00319635 -0 0.00319631)
(0.00320313 -0.00145579 -0 0.00320319 -0 0.00320316)
(0.00311226 -0.00138531 -0 0.00311216 -0 0.00311221)
(0.00310887 -0.00138934 -0 0.00310876 -0 0.00310882)
(0.00310733 -0.00139022 -0 0.00310743 -0 0.00310738)
(0.00311424 -0.00141339 -0 0.00311435 -0 0.0031143)
(0.00302165 -0.00134198 -0 0.00302151 -0 0.00302158)
(0.00301831 -0.00134559 -0 0.00301816 -0 0.00301823)
(0.0030168 -0.0013475 -0 0.00301694 -0 0.00301688)
(0.00302365 -0.00137012 -0 0.00302381 -0 0.00302374)
(0.00292958 -0.00130143 -0 0.00292945 -0 0.00292952)
(0.00292586 -0.00129772 -0 0.00292574 -0 0.0029258)
(0.00292471 -0.00130408 -0 0.00292484 -0 0.00292478)
(0.00293141 -0.00132581 -0 0.00293154 -0 0.00293148)
(0.00283584 -0.00125592 -0 0.00283575 -0 0.0028358)
(0.00283176 -0.00125289 -0 0.00283173 -0 0.00283175)
(0.00283109 -0.00126085 -0 0.00283117 -0 0.00283113)
(0.00283752 -0.00128008 -0 0.00283755 -0 0.00283753)
(0.0027404 -0.00121035 -0 0.00274036 -0 0.00274038)
(0.00273614 -0.00120684 -0 0.0027362 -0 0.00273617)
(0.00273588 -0.00121582 -0 0.00273591 -0 0.0027359)
(0.00274199 -0.00123392 -0 0.00274193 -0 0.00274196)
(0.0026433 -0.00116399 -0 0.00264334 -0 0.00264331)
(0.00263902 -0.00116034 -0 0.00263917 -0 0.00263909)
(0.00263903 -0.0011689 -0 0.002639 -0 0.00263902)
(0.00264487 -0.00118711 -0 0.00264473 -0 0.0026448)
(0.00254459 -0.00111696 -0 0.00254473 -0 0.00254466)
(0.00254042 -0.0011133 -0 0.00254065 -0 0.00254054)
(0.00254062 -0.00112164 -0 0.00254048 -0 0.00254055)
(0.00254618 -0.00113888 -0 0.00254594 -0 0.00254606)
(0.00244434 -0.00106934 -0 0.00244455 -0 0.00244445)
(0.0024404 -0.00106561 -0 0.0024407 -0 0.00244055)
(0.00244076 -0.00107466 -0 0.00244054 -0 0.00244064)
(0.00244587 -0.00108879 -0 0.00244557 -0 0.00244572)
(0.00234262 -0.00102101 -0 0.00234283 -0 0.00234274)
(0.00233923 -0.00102146 -0 0.00233954 -0 0.00233939)
(0.00233939 -0.00102451 -0 0.00233918 -0 0.00233927)
(0.00234401 -0.00103831 -0 0.0023437 -0 0.00234386)
(0.00223945 -0.000970618 -0 0.00223958 -0 0.00223951)
(0.00223679 -0.000973451 -0 0.00223706 -0 0.00223693)
(0.00223655 -0.000974582 -0 0.00223642 -0 0.00223649)
(0.00224074 -0.000987814 -0 0.00224047 -0 0.00224061)
(0.00213487 -0.000920476 -0 0.00213492 -0 0.00213489)
(0.00213293 -0.000923631 -0 0.00213311 -0 0.00213302)
(0.00213241 -0.000924681 -0 0.00213236 -0 0.00213239)
(0.00213612 -0.000935993 -0 0.00213594 -0 0.00213603)
(0.00202894 -0.000868537 -0 0.00202895 -0 0.00202895)
(0.00202768 -0.000873264 -0 0.00202778 -0 0.00202773)
(0.00202694 -0.000872454 -0 0.00202694 -0 0.00202694)
(0.00203028 -0.000884385 -0 0.00203017 -0 0.00203023)
(0.00192184 -0.000816415 -0 0.00192183 -0 0.00192183)
(0.00192112 -0.000821744 -0 0.00192117 -0 0.00192114)
(0.00192025 -0.000820436 -0 0.00192026 -0 0.00192026)
(0.00192332 -0.000832044 -0 0.00192327 -0 0.0019233)
(0.00181375 -0.000763702 -0 0.00181374 -0 0.00181374)
(0.00181339 -0.000769444 -0 0.0018134 -0 0.0018134)
(0.00181252 -0.000767774 -0 0.00181253 -0 0.00181252)
(0.00181536 -0.000779179 -0 0.00181536 -0 0.00181536)
(0.00170486 -0.000710359 -0 0.00170486 -0 0.00170486)
(0.00170471 -0.000716508 -0 0.00170468 -0 0.0017047)
(0.00170391 -0.000714343 -0 0.00170392 -0 0.00170391)
(0.00170655 -0.000725929 -0 0.00170659 -0 0.00170657)
(0.0015954 -0.000656333 -0 0.00159538 -0 0.00159539)
(0.00159535 -0.000663128 -0 0.00159529 -0 0.00159532)
(0.0015946 -0.00066017 -0 0.00159462 -0 0.00159461)
(0.00159712 -0.000672676 -0 0.00159719 -0 0.00159715)
(0.00148556 -0.000601561 -0 0.00148553 -0 0.00148554)
(0.0014856 -0.000609561 -0 0.00148553 -0 0.00148556)
(0.00148483 -0.000605449 -0 0.00148487 -0 0.00148485)
(0.00148735 -0.000619352 -0 0.00148743 -0 0.00148739)
(0.00137543 -0.00054315 -0 0.00137539 -0 0.00137541)
(0.00137586 -0.000556229 -0 0.0013758 -0 0.00137583)
(0.00137463 -0.000546016 -0 0.00137467 -0 0.00137465)
(0.00137768 -0.00056738 -0 0.00137775 -0 0.00137772)
(0.00126585 -0.000489919 -0 0.00126581 -0 0.00126583)
(0.00126654 -0.000501059 -0 0.0012665 -0 0.00126653)
(0.00126498 -0.00049328 -0 0.00126502 -0 0.001265)
(0.00126846 -0.000512492 -0 0.0012685 -0 0.00126848)
(0.00115763 -0.000436872 -0 0.0011576 -0 0.00115761)
(0.00115824 -0.000445764 -0 0.00115825 -0 0.00115824)
(0.00115676 -0.000441241 -0 0.00115678 -0 0.00115677)
(0.00116024 -0.000456991 -0 0.00116023 -0 0.00116024)
(0.00105168 -0.000387768 -0 0.00105168 -0 0.00105168)
(0.00105154 -0.000388079 -0 0.00105161 -0 0.00105157)
(0.00105061 -0.000389772 -0 0.0010506 -0 0.0010506)
(0.00105375 -0.000400824 -0 0.00105369 -0 0.00105372)
(0.000948476 -0.000335057 -0 0.000948493 -0 0.000948491)
(0.000947923 -0.000338295 -0 0.00094801 -0 0.000947973)
(0.000947522 -0.00034011 -0 0.000947505 -0 0.000947507)
(0.000949928 -0.000345112 -0 0.000949839 -0 0.000949877)
(0.000848858 -0.000283456 -0 0.00084887 -0 0.000848863)
(0.000848327 -0.000286599 -0 0.000848384 -0 0.000848354)
(0.000848287 -0.000288568 -0 0.000848275 -0 0.000848282)
(0.000850002 -0.000292256 -0 0.000849944 -0 0.000849975)
(0.000754373 -0.000234319 -0 0.000754387 -0 0.000754381)
(0.000753947 -0.000237096 -0 0.000753964 -0 0.000753954)
(0.000754064 -0.000238942 -0 0.000754049 -0 0.000754056)
(0.000755398 -0.000241628 -0 0.00075538 -0 0.000755391)
(0.000666855 -0.000188075 -0 0.000666875 -0 0.000666866)
(0.000666496 -0.00019029 -0 0.000666494 -0 0.000666494)
(0.000666655 -0.000191835 -0 0.000666634 -0 0.000666643)
(0.00066776 -0.000193896 -0 0.000667762 -0 0.000667762)
(0.000588375 -0.000145411 -0 0.000588393 -0 0.000588386)
(0.000588041 -0.000146958 -0 0.000588033 -0 0.000588037)
(0.000588173 -0.000148084 -0 0.000588155 -0 0.000588162)
(0.000589094 -0.000149737 -0 0.000589102 -0 0.000589099)
(0.000521246 -0.000106832 -0 0.000521254 -0 0.000521252)
(0.00052088 -0.000107709 -0 0.000520872 -0 0.000520875)
(0.000520946 -0.000108461 -0 0.000520938 -0 0.00052094)
(0.000521726 -0.000109842 -0 0.000521734 -0 0.000521731)
(0.000467879 -7.24114e-05 -0 0.000467878 -0 0.000467878)
(0.000467374 -7.27114e-05 -0 0.000467369 -0 0.000467372)
(0.000467402 -7.34227e-05 -0 0.000467403 -0 0.000467402)
(0.000468151 -7.44676e-05 -0 0.000468155 -0 0.000468153)
(0.000430507 -4.14419e-05 -0 0.000430511 -0 0.00043051)
(0.000429724 -4.10983e-05 -0 0.000429725 -0 0.000429725)
(0.000429904 -4.25957e-05 -0 0.0004299 -0 0.000429902)
(0.000430776 -4.307e-05 -0 0.000430775 -0 0.000430775)
(0.00041122 -1.36024e-05 -0 0.000411233 -0 0.000411228)
(0.000410263 -1.34908e-05 -0 0.000410269 -0 0.000410266)
(0.000410518 -1.4019e-05 -0 0.000410505 -0 0.000410509)
(0.000411534 -1.42543e-05 -0 0.000411529 -0 0.000411532)
)
;

boundaryField
{
    inlet
    {
        type            cyclic;
    }
    outlet
    {
        type            cyclic;
    }
    fixedWalls-bottom
    {
        type            kqRWallFunction;
        value           nonuniform List<symmTensor> 4((1.54038e-08 -0 -0 1.54038e-08 -0 1.54038e-08) (1.54261e-08 -0 -0 1.54261e-08 -0 1.54261e-08) (1.54272e-08 -0 -0 1.54272e-08 -0 1.54272e-08) (1.54234e-08 -0 -0 1.54234e-08 -0 1.54234e-08));
    }
    fixedWalls-top
    {
        type            symmetry;
    }
    frontAndBack
    {
        type            empty;
    }
}


// ************************************************************************* //
