# Residuals   
# Time        	p             	Ux            	Uy            
0             	N/A	N/A
1             	9.999963e-01	0.000000e+00	0.000000e+00
2             	1.000000e+00	9.337525e-01	1.000000e+00
3             	1.998848e-01	3.371414e-01	3.060835e-01
4             	2.006019e-01	4.695229e-02	1.482649e-01
5             	2.224623e-01	2.644592e-02	8.969721e-02
6             	2.307816e-01	2.201441e-02	1.150467e-01
7             	2.102424e-01	2.182767e-02	5.257321e-02
8             	7.727486e-02	2.161851e-02	5.758523e-02
9             	5.694641e-02	2.190775e-02	7.304213e-02
10            	8.604355e-02	2.264356e-02	8.844781e-02
11            	1.125279e-01	2.230805e-02	1.073603e-01
12            	1.346625e-01	2.096982e-02	1.249959e-01
13            	1.290181e-01	1.960253e-02	1.274685e-01
14            	1.132084e-01	1.843082e-02	1.252956e-01
15            	1.085858e-01	1.744456e-02	1.186833e-01
16            	1.193689e-01	1.662912e-02	1.153353e-01
17            	1.235108e-01	1.574893e-02	1.180402e-01
18            	1.224829e-01	1.495376e-02	1.231453e-01
19            	1.211936e-01	1.409015e-02	1.309957e-01
20            	1.144414e-01	1.333421e-02	1.379860e-01
21            	1.098325e-01	1.248074e-02	1.351219e-01
22            	1.028136e-01	1.180745e-02	1.232547e-01
23            	8.481105e-02	1.100498e-02	1.081605e-01
24            	7.800054e-02	1.046328e-02	9.555032e-02
25            	7.895513e-02	9.923632e-03	8.626553e-02
26            	7.184477e-02	9.333484e-03	7.535515e-02
27            	6.579277e-02	9.024719e-03	6.600143e-02
28            	6.671635e-02	8.538143e-03	5.665951e-02
29            	5.930426e-02	8.089612e-03	4.753409e-02
30            	5.954593e-02	7.917198e-03	4.290802e-02
31            	5.075649e-02	7.625218e-03	3.787187e-02
32            	4.780133e-02	7.140497e-03	3.280664e-02
33            	4.580512e-02	7.111883e-03	2.950928e-02
34            	4.738283e-02	6.957937e-03	2.781853e-02
35            	4.387408e-02	6.712467e-03	2.548526e-02
36            	4.462567e-02	6.305308e-03	2.260520e-02
37            	4.102250e-02	6.347075e-03	2.190813e-02
38            	4.356213e-02	6.273331e-03	2.254565e-02
39            	4.225870e-02	6.115202e-03	2.142804e-02
40            	4.240203e-02	5.749789e-03	1.948145e-02
41            	4.641501e-02	5.679463e-03	1.915342e-02
42            	3.806632e-02	5.718708e-03	2.009314e-02
43            	4.022504e-02	5.640920e-03	2.029257e-02
44            	4.089968e-02	5.477618e-03	1.934600e-02
45            	4.262201e-02	5.147695e-03	1.775760e-02
46            	5.051089e-02	5.035393e-03	1.755382e-02
47            	4.146153e-02	5.063153e-03	1.898430e-02
48            	4.378922e-02	5.049075e-03	2.118101e-02
49            	4.592256e-02	4.963981e-03	2.176404e-02
50            	4.756836e-02	4.796024e-03	2.084223e-02
51            	4.901135e-02	4.513296e-03	1.812307e-02
52            	5.708127e-02	4.378711e-03	1.722715e-02
53            	4.761309e-02	4.349170e-03	2.115159e-02
54            	4.736118e-02	4.328703e-03	2.359046e-02
55            	4.603519e-02	4.289241e-03	2.489159e-02
56            	4.505145e-02	4.217112e-03	2.568418e-02
57            	4.741691e-02	4.096195e-03	2.565277e-02
58            	5.091275e-02	3.911063e-03	2.460478e-02
59            	6.191267e-02	3.732582e-03	2.206029e-02
60            	5.176110e-02	3.672188e-03	2.555913e-02
61            	5.225921e-02	3.595961e-03	2.809788e-02
62            	4.708447e-02	3.513944e-03	2.946822e-02
63            	4.311405e-02	3.452057e-03	3.015096e-02
64            	4.028850e-02	3.399699e-03	3.055209e-02
65            	3.819742e-02	3.346173e-03	3.071129e-02
66            	3.704754e-02	3.283725e-03	3.010321e-02
67            	3.730503e-02	3.206294e-03	2.872831e-02
68            	4.086706e-02	3.106252e-03	2.684418e-02
69            	4.595895e-02	2.991569e-03	2.517768e-02
70            	4.643103e-02	2.932649e-03	2.348143e-02
71            	4.854323e-02	2.893682e-03	2.543924e-02
72            	4.544183e-02	2.849543e-03	2.655867e-02
73            	4.160949e-02	2.803010e-03	2.687481e-02
74            	3.798874e-02	2.754845e-03	2.667345e-02
75            	3.498341e-02	2.706056e-03	2.594265e-02
76            	3.285536e-02	2.656737e-03	2.471618e-02
77            	3.076679e-02	2.607376e-03	2.323966e-02
78            	2.913395e-02	2.558073e-03	2.178645e-02
79            	2.723340e-02	2.508920e-03	2.031112e-02
80            	2.552439e-02	2.459679e-03	1.940212e-02
81            	2.550295e-02	2.410334e-03	1.890242e-02
82            	2.764627e-02	2.360727e-03	1.845406e-02
83            	2.920953e-02	2.310549e-03	1.791801e-02
84            	2.700969e-02	2.259584e-03	1.716017e-02
85            	2.608584e-02	2.208380e-03	1.615528e-02
86            	2.748802e-02	2.163817e-03	1.450181e-02
87            	2.847751e-02	2.121789e-03	1.431463e-02
88            	3.399083e-02	2.098185e-03	1.600482e-02
89            	3.109103e-02	2.076166e-03	1.748203e-02
90            	2.740451e-02	2.055380e-03	1.775562e-02
91            	2.538013e-02	2.035928e-03	1.727155e-02
92            	2.339723e-02	2.017861e-03	1.643877e-02
93            	2.138591e-02	2.001685e-03	1.565743e-02
94            	2.004529e-02	1.986172e-03	1.514934e-02
95            	1.909602e-02	1.971196e-03	1.504046e-02
96            	1.822686e-02	1.956618e-03	1.499477e-02
97            	1.784022e-02	1.942347e-03	1.511004e-02
98            	1.738528e-02	1.928323e-03	1.529642e-02
99            	1.708786e-02	1.914467e-03	1.549492e-02
100           	1.692631e-02	1.900680e-03	1.572495e-02
101           	1.706769e-02	1.886874e-03	1.595128e-02
102           	1.696801e-02	1.872894e-03	1.620386e-02
103           	1.708100e-02	1.858651e-03	1.645822e-02
104           	1.679617e-02	1.843953e-03	1.674773e-02
105           	1.697066e-02	1.828655e-03	1.704412e-02
106           	1.681244e-02	1.812469e-03	1.738387e-02
107           	1.734677e-02	1.795192e-03	1.779171e-02
108           	1.760794e-02	1.777898e-03	1.868656e-02
109           	2.110997e-02	1.764728e-03	1.972818e-02
110           	2.494092e-02	1.758714e-03	1.851785e-02
111           	2.507862e-02	1.753467e-03	1.826700e-02
112           	2.292907e-02	1.747859e-03	1.803925e-02
113           	2.049391e-02	1.741810e-03	1.795026e-02
114           	1.853512e-02	1.735175e-03	1.817603e-02
115           	1.723745e-02	1.727864e-03	1.848079e-02
116           	1.660414e-02	1.719715e-03	1.876419e-02
117           	1.640702e-02	1.710604e-03	1.903720e-02
118           	1.654047e-02	1.700329e-03	1.931435e-02
119           	1.698459e-02	1.688703e-03	1.971347e-02
120           	1.735526e-02	1.676094e-03	2.035773e-02
121           	1.932139e-02	1.664368e-03	2.155595e-02
122           	2.707350e-02	1.658018e-03	2.032073e-02
123           	2.839190e-02	1.653296e-03	1.992227e-02
124           	2.908757e-02	1.648037e-03	1.949769e-02
125           	2.723261e-02	1.642138e-03	1.912704e-02
126           	2.373135e-02	1.635465e-03	1.909164e-02
127           	2.162375e-02	1.628376e-03	1.926804e-02
128           	2.027731e-02	1.621183e-03	1.955875e-02
129           	2.133239e-02	1.613334e-03	2.001072e-02
130           	2.307786e-02	1.606124e-03	2.108686e-02
131           	2.535827e-02	1.599564e-03	2.246884e-02
132           	2.615869e-02	1.597949e-03	2.194625e-02
133           	2.467514e-02	1.596988e-03	2.223623e-02
134           	2.329883e-02	1.595389e-03	2.213914e-02
135           	2.291736e-02	1.592913e-03	2.207095e-02
136           	2.219990e-02	1.589306e-03	2.222484e-02
137           	2.170470e-02	1.584336e-03	2.269073e-02
138           	2.172176e-02	1.578744e-03	2.387972e-02
139           	2.595694e-02	1.572821e-03	2.543433e-02
140           	3.210341e-02	1.570373e-03	2.493737e-02
141           	3.492511e-02	1.567962e-03	2.447588e-02
142           	3.166696e-02	1.564144e-03	2.377728e-02
143           	2.998210e-02	1.559103e-03	2.369400e-02
144           	2.847027e-02	1.552706e-03	2.408315e-02
145           	2.781007e-02	1.546325e-03	2.549375e-02
146           	3.029482e-02	1.540367e-03	2.559102e-02
147           	3.137269e-02	1.536385e-03	2.503613e-02
148           	3.142554e-02	1.531284e-03	2.452308e-02
149           	3.258820e-02	1.524719e-03	2.419377e-02
150           	3.249244e-02	1.518013e-03	2.542424e-02
151           	3.448668e-02	1.510656e-03	2.574369e-02
152           	3.483213e-02	1.504765e-03	2.512158e-02
153           	3.223534e-02	1.498654e-03	2.465487e-02
154           	3.438970e-02	1.492103e-03	2.586935e-02
155           	3.774348e-02	1.487714e-03	2.488882e-02
156           	4.185518e-02	1.477015e-03	2.486236e-02
157           	5.965077e-02	1.469321e-03	2.497247e-02
158           	5.639036e-02	1.452807e-03	2.524954e-02
159           	4.821066e-02	1.455222e-03	2.676857e-02
160           	3.799616e-02	1.457611e-03	2.846506e-02
161           	2.879159e-02	1.460021e-03	3.012507e-02
162           	2.269527e-02	1.462200e-03	3.130818e-02
163           	2.026065e-02	1.464157e-03	3.240874e-02
164           	1.931270e-02	1.465690e-03	3.345905e-02
165           	1.862498e-02	1.466922e-03	3.385680e-02
166           	1.800863e-02	1.467954e-03	3.414088e-02
167           	1.777333e-02	1.468580e-03	3.462380e-02
168           	1.718542e-02	1.468819e-03	3.513107e-02
169           	1.625253e-02	1.468691e-03	3.551668e-02
170           	1.511043e-02	1.468224e-03	3.579815e-02
171           	1.429588e-02	1.467454e-03	3.588884e-02
172           	1.364873e-02	1.466416e-03	3.581024e-02
173           	1.310903e-02	1.465236e-03	3.550430e-02
174           	1.258578e-02	1.463818e-03	3.498473e-02
175           	1.204279e-02	1.462174e-03	3.436734e-02
176           	1.149336e-02	1.460326e-03	3.370537e-02
177           	1.092015e-02	1.458700e-03	3.298174e-02
178           	1.049732e-02	1.457619e-03	3.261904e-02
179           	1.089698e-02	1.456594e-03	3.232311e-02
180           	1.169175e-02	1.455743e-03	3.224069e-02
181           	1.230169e-02	1.455012e-03	3.229470e-02
182           	1.255901e-02	1.454288e-03	3.214099e-02
183           	1.257650e-02	1.453516e-03	3.156380e-02
184           	1.267473e-02	1.452655e-03	3.066114e-02
185           	1.251732e-02	1.451681e-03	2.955128e-02
186           	1.222898e-02	1.450573e-03	2.828100e-02
187           	1.188601e-02	1.449319e-03	2.696492e-02
188           	1.153428e-02	1.447913e-03	2.577923e-02
189           	1.122904e-02	1.446350e-03	2.464951e-02
190           	1.102121e-02	1.444629e-03	2.367349e-02
191           	1.087890e-02	1.442768e-03	2.266032e-02
192           	1.088831e-02	1.440794e-03	2.162035e-02
193           	1.072638e-02	1.438689e-03	2.056343e-02
194           	1.051105e-02	1.436446e-03	1.948496e-02
195           	1.040654e-02	1.434077e-03	1.852144e-02
196           	1.027675e-02	1.431575e-03	1.762415e-02
197           	9.932576e-03	1.428941e-03	1.703882e-02
198           	9.813625e-03	1.426183e-03	1.660863e-02
199           	9.506715e-03	1.423305e-03	1.615472e-02
200           	9.363649e-03	1.420313e-03	1.571862e-02
201           	9.204695e-03	1.417213e-03	1.528080e-02
202           	8.934548e-03	1.414011e-03	1.481434e-02
203           	8.636188e-03	1.410712e-03	1.442487e-02
204           	8.437233e-03	1.407320e-03	1.406974e-02
205           	8.301270e-03	1.403841e-03	1.371615e-02
206           	8.134534e-03	1.400284e-03	1.337053e-02
207           	7.903733e-03	1.396686e-03	1.305720e-02
208           	7.502896e-03	1.393045e-03	1.273682e-02
209           	7.234152e-03	1.389334e-03	1.243639e-02
210           	7.045786e-03	1.385555e-03	1.214491e-02
211           	6.844169e-03	1.381713e-03	1.183600e-02
212           	6.653947e-03	1.377810e-03	1.152451e-02
213           	6.457144e-03	1.373851e-03	1.121481e-02
214           	6.257069e-03	1.369837e-03	1.089950e-02
215           	5.976036e-03	1.365772e-03	1.057978e-02
216           	5.748593e-03	1.361657e-03	1.027072e-02
217           	5.558461e-03	1.357496e-03	9.960425e-03
218           	5.393218e-03	1.353291e-03	9.645665e-03
219           	5.256552e-03	1.349045e-03	9.330693e-03
220           	5.115898e-03	1.344759e-03	9.013942e-03
221           	4.988933e-03	1.340436e-03	8.702013e-03
222           	4.843201e-03	1.336077e-03	8.388241e-03
223           	4.708470e-03	1.331693e-03	8.072195e-03
224           	4.571134e-03	1.327318e-03	7.762551e-03
225           	4.457400e-03	1.322927e-03	7.449827e-03
226           	4.333511e-03	1.318506e-03	7.139665e-03
227           	4.233863e-03	1.314056e-03	6.830737e-03
228           	4.128358e-03	1.309585e-03	6.535051e-03
229           	4.124200e-03	1.305138e-03	6.273515e-03
230           	4.108614e-03	1.300738e-03	6.015902e-03
231           	4.131277e-03	1.296357e-03	5.792584e-03
232           	4.266546e-03	1.291977e-03	5.623294e-03
233           	4.467314e-03	1.287590e-03	5.517832e-03
234           	4.550850e-03	1.283190e-03	5.453793e-03
235           	4.765509e-03	1.278775e-03	5.417756e-03
236           	4.828888e-03	1.274341e-03	5.402652e-03
237           	5.045064e-03	1.269886e-03	5.422919e-03
238           	5.097346e-03	1.265410e-03	5.409835e-03
239           	5.260447e-03	1.260910e-03	5.418549e-03
240           	5.294594e-03	1.256387e-03	5.408868e-03
241           	5.370804e-03	1.251840e-03	5.417843e-03
242           	5.518735e-03	1.247308e-03	5.416123e-03
243           	5.696165e-03	1.242770e-03	5.419130e-03
244           	5.834450e-03	1.238210e-03	5.414413e-03
245           	5.922140e-03	1.233622e-03	5.418048e-03
246           	5.935205e-03	1.229013e-03	5.411956e-03
247           	5.937669e-03	1.224378e-03	5.414082e-03
248           	5.874240e-03	1.219721e-03	5.407660e-03
249           	5.815694e-03	1.215040e-03	5.419554e-03
250           	5.813937e-03	1.210338e-03	5.432303e-03
251           	5.727037e-03	1.205612e-03	5.441363e-03
252           	5.678691e-03	1.200868e-03	5.443312e-03
253           	5.656542e-03	1.196101e-03	5.452066e-03
254           	5.554178e-03	1.191317e-03	5.443469e-03
255           	5.486008e-03	1.186511e-03	5.435892e-03
256           	5.478252e-03	1.181689e-03	5.427252e-03
257           	5.373109e-03	1.176846e-03	5.418386e-03
258           	5.295323e-03	1.171990e-03	5.407123e-03
259           	5.280272e-03	1.167114e-03	5.404244e-03
260           	5.196700e-03	1.162225e-03	5.385627e-03
261           	5.137364e-03	1.157327e-03	5.380332e-03
262           	5.075103e-03	1.152441e-03	5.393342e-03
263           	5.007029e-03	1.147555e-03	5.420726e-03
264           	4.926358e-03	1.142659e-03	5.442655e-03
265           	4.878345e-03	1.137748e-03	5.471253e-03
266           	4.772615e-03	1.132826e-03	5.483874e-03
267           	4.730214e-03	1.127889e-03	5.496459e-03
268           	4.604754e-03	1.122944e-03	5.501728e-03
269           	4.599032e-03	1.117986e-03	5.516706e-03
270           	4.558405e-03	1.113020e-03	5.514688e-03
271           	4.532742e-03	1.108043e-03	5.517567e-03
272           	4.638346e-03	1.103058e-03	5.504495e-03
273           	4.595604e-03	1.098062e-03	5.493548e-03
274           	4.578121e-03	1.093061e-03	5.472932e-03
275           	4.604679e-03	1.088050e-03	5.462530e-03
276           	4.699143e-03	1.083035e-03	5.438062e-03
277           	4.641644e-03	1.078011e-03	5.418638e-03
278           	4.644276e-03	1.072984e-03	5.404103e-03
279           	4.664843e-03	1.067949e-03	5.408756e-03
280           	4.663637e-03	1.062912e-03	5.417926e-03
281           	4.726453e-03	1.057868e-03	5.431611e-03
282           	4.716573e-03	1.052822e-03	5.437304e-03
283           	4.711343e-03	1.047770e-03	5.459564e-03
284           	4.682510e-03	1.042729e-03	5.484806e-03
285           	4.745084e-03	1.037699e-03	5.516611e-03
286           	4.732484e-03	1.032682e-03	5.547340e-03
287           	4.789388e-03	1.027659e-03	5.626848e-03
288           	4.699973e-03	1.022637e-03	5.739067e-03
289           	4.694856e-03	1.017610e-03	5.874834e-03
290           	4.875009e-03	1.012585e-03	6.023394e-03
291           	5.008765e-03	1.007557e-03	6.179115e-03
292           	5.009293e-03	1.002531e-03	6.305125e-03
293           	5.081600e-03	9.975029e-04	6.444334e-03
294           	5.187704e-03	9.924778e-04	6.581050e-03
295           	5.093537e-03	9.874722e-04	6.754976e-03
296           	5.077359e-03	9.825164e-04	6.963241e-03
297           	5.143508e-03	9.776085e-04	7.084761e-03
298           	5.031726e-03	9.727344e-04	7.081082e-03
299           	4.748820e-03	9.678638e-04	7.119601e-03
300           	4.493535e-03	9.630039e-04	7.181844e-03
301           	4.263394e-03	9.581477e-04	7.257452e-03
302           	4.033449e-03	9.533006e-04	7.309907e-03
303           	3.837168e-03	9.484561e-04	7.361015e-03
304           	3.700521e-03	9.436211e-04	7.395250e-03
305           	3.556233e-03	9.387890e-04	7.435868e-03
306           	3.477521e-03	9.339657e-04	7.454619e-03
307           	3.384135e-03	9.291448e-04	7.471329e-03
308           	3.294947e-03	9.243338e-04	7.477044e-03
309           	3.240639e-03	9.195260e-04	7.484259e-03
310           	3.209001e-03	9.147271e-04	7.467806e-03
311           	3.118364e-03	9.099306e-04	7.450364e-03
312           	3.067575e-03	9.051523e-04	7.423485e-03
313           	3.010729e-03	9.003780e-04	7.411805e-03
314           	2.978276e-03	8.956247e-04	7.377019e-03
315           	2.945938e-03	8.908736e-04	7.336169e-03
316           	2.962379e-03	8.861324e-04	7.295097e-03
317           	2.922997e-03	8.813945e-04	7.252664e-03
318           	2.900603e-03	8.766667e-04	7.192244e-03
319           	2.853626e-03	8.719420e-04	7.120361e-03
320           	2.870827e-03	8.672274e-04	7.048206e-03
321           	2.907077e-03	8.625156e-04	7.005088e-03
322           	2.951120e-03	8.578149e-04	6.954430e-03
323           	3.024133e-03	8.531178e-04	6.900779e-03
324           	3.057169e-03	8.484318e-04	6.840011e-03
325           	3.057108e-03	8.437503e-04	6.783474e-03
326           	3.082752e-03	8.390802e-04	6.705494e-03
327           	3.127355e-03	8.344143e-04	6.629247e-03
328           	3.165470e-03	8.297597e-04	6.549967e-03
329           	3.244532e-03	8.251088e-04	6.478528e-03
330           	3.297289e-03	8.204705e-04	6.394752e-03
331           	3.316582e-03	8.158365e-04	6.317627e-03
332           	3.344741e-03	8.112161e-04	6.248159e-03
333           	3.400657e-03	8.066004e-04	6.185213e-03
334           	3.435702e-03	8.019969e-04	6.114170e-03
335           	3.490161e-03	7.973977e-04	6.043512e-03
336           	3.553190e-03	7.928129e-04	5.977688e-03
337           	3.609584e-03	7.882325e-04	5.905938e-03
338           	3.665005e-03	7.836661e-04	5.838372e-03
339           	3.701216e-03	7.791046e-04	5.772228e-03
340           	3.762183e-03	7.745573e-04	5.698562e-03
341           	3.823613e-03	7.700150e-04	5.631591e-03
342           	3.848890e-03	7.654875e-04	5.560639e-03
343           	3.875813e-03	7.609655e-04	5.486712e-03
344           	3.920448e-03	7.564585e-04	5.420559e-03
345           	3.947317e-03	7.519574e-04	5.346290e-03
346           	3.994314e-03	7.474713e-04	5.280055e-03
347           	4.044802e-03	7.429911e-04	5.213487e-03
348           	4.081420e-03	7.385263e-04	5.144205e-03
349           	4.127771e-03	7.340681e-04	5.079704e-03
350           	4.170304e-03	7.296257e-04	5.024264e-03
351           	4.194172e-03	7.251901e-04	4.953835e-03
352           	4.238612e-03	7.207703e-04	4.888227e-03
353           	4.286629e-03	7.163591e-04	4.830313e-03
354           	4.299603e-03	7.119678e-04	4.772046e-03
355           	4.352089e-03	7.075827e-04	4.716016e-03
356           	4.354295e-03	7.032186e-04	4.653957e-03
357           	4.389753e-03	6.988632e-04	4.597737e-03
358           	4.411110e-03	6.945239e-04	4.552262e-03
359           	4.434693e-03	6.901922e-04	4.490735e-03
360           	4.487506e-03	6.858770e-04	4.437957e-03
361           	4.536392e-03	6.815690e-04	4.396290e-03
362           	4.531640e-03	6.772776e-04	4.351607e-03
363           	4.581628e-03	6.729931e-04	4.320111e-03
364           	4.584592e-03	6.687261e-04	4.269378e-03
365           	4.601900e-03	6.644678e-04	4.231015e-03
366           	4.608145e-03	6.602249e-04	4.195951e-03
367           	4.611106e-03	6.559920e-04	4.164849e-03
368           	4.645663e-03	6.517744e-04	4.134527e-03
369           	4.650017e-03	6.475665e-04	4.102779e-03
370           	4.676337e-03	6.433763e-04	4.074099e-03
371           	4.703822e-03	6.391942e-04	4.060156e-03
372           	4.710248e-03	6.350289e-04	4.029274e-03
373           	4.751114e-03	6.308723e-04	4.009556e-03
374           	4.751075e-03	6.267346e-04	3.996143e-03
375           	4.779711e-03	6.226052e-04	3.987859e-03
376           	4.775435e-03	6.184938e-04	3.978546e-03
377           	4.711264e-03	6.143911e-04	3.970727e-03
378           	4.660905e-03	6.103074e-04	3.961077e-03
379           	4.756867e-03	6.062325e-04	3.965348e-03
380           	4.737886e-03	6.021757e-04	3.959244e-03
381           	4.744367e-03	5.981284e-04	3.962241e-03
382           	4.725828e-03	5.941005e-04	3.967941e-03
383           	4.825956e-03	5.900818e-04	3.980570e-03
384           	4.778191e-03	5.860813e-04	3.990688e-03
385           	4.752813e-03	5.820907e-04	4.009746e-03
386           	4.724369e-03	5.781194e-04	4.032724e-03
387           	4.778943e-03	5.741577e-04	4.062265e-03
388           	4.737091e-03	5.702152e-04	4.086340e-03
389           	4.744548e-03	5.662821e-04	4.118077e-03
390           	4.760219e-03	5.623686e-04	4.143719e-03
391           	4.796230e-03	5.584653e-04	4.182739e-03
392           	4.815124e-03	5.545817e-04	4.221207e-03
393           	4.795582e-03	5.507080e-04	4.257789e-03
394           	4.748910e-03	5.468540e-04	4.292451e-03
395           	4.722164e-03	5.430100e-04	4.338673e-03
396           	4.687682e-03	5.391874e-04	4.370854e-03
397           	4.689218e-03	5.353783e-04	4.410690e-03
398           	4.672316e-03	5.315897e-04	4.458295e-03
399           	4.656270e-03	5.278117e-04	4.500345e-03
400           	4.624009e-03	5.240540e-04	4.543099e-03
401           	4.627338e-03	5.203065e-04	4.601154e-03
402           	4.598654e-03	5.165781e-04	4.640366e-03
403           	4.600763e-03	5.128612e-04	4.686337e-03
404           	4.988993e-03	5.091762e-04	4.843251e-03
405           	5.493014e-03	5.055087e-04	4.992501e-03
406           	5.977435e-03	5.018592e-04	5.195845e-03
407           	6.405993e-03	4.982219e-04	5.409889e-03
408           	6.681805e-03	4.946048e-04	5.612919e-03
409           	6.868431e-03	4.909987e-04	5.796764e-03
410           	7.086302e-03	4.874120e-04	5.955136e-03
411           	7.247282e-03	4.838355e-04	6.116349e-03
412           	7.411965e-03	4.802792e-04	6.256533e-03
413           	7.554628e-03	4.767336e-04	6.395911e-03
414           	7.610140e-03	4.732069e-04	6.530816e-03
415           	7.737851e-03	4.696933e-04	6.666577e-03
416           	7.833427e-03	4.662007e-04	6.793145e-03
417           	7.813283e-03	4.627211e-04	6.926084e-03
418           	7.718884e-03	4.592636e-04	7.056505e-03
419           	7.516299e-03	4.558171e-04	7.171682e-03
420           	7.499159e-03	4.523906e-04	7.243446e-03
421           	7.375178e-03	4.489819e-04	7.396385e-03
422           	7.594466e-03	4.455996e-04	7.589473e-03
423           	7.931949e-03	4.422311e-04	7.676200e-03
424           	8.038517e-03	4.388918e-04	7.616868e-03
425           	7.816751e-03	4.355637e-04	7.593361e-03
426           	7.408733e-03	4.322624e-04	7.487281e-03
427           	6.912515e-03	4.289774e-04	7.337705e-03
428           	6.468268e-03	4.257104e-04	7.224438e-03
429           	6.078448e-03	4.224541e-04	7.125977e-03
430           	5.638634e-03	4.192169e-04	7.052695e-03
431           	5.259808e-03	4.159903e-04	7.027463e-03
432           	4.985967e-03	4.127824e-04	7.027261e-03
433           	4.738334e-03	4.095850e-04	7.046432e-03
434           	4.565215e-03	4.064057e-04	7.053907e-03
435           	4.400552e-03	4.032364e-04	7.067930e-03
436           	4.267141e-03	4.000856e-04	7.078916e-03
437           	4.129875e-03	3.969448e-04	7.080461e-03
438           	4.032598e-03	3.938220e-04	7.080325e-03
439           	3.965416e-03	3.907090e-04	7.089828e-03
440           	3.918563e-03	3.876136e-04	7.096810e-03
441           	3.817474e-03	3.845276e-04	7.102605e-03
442           	3.756795e-03	3.814597e-04	7.097265e-03
443           	3.669193e-03	3.784086e-04	7.086266e-03
444           	3.615921e-03	3.753823e-04	7.065123e-03
445           	3.565834e-03	3.723687e-04	7.056386e-03
446           	3.541901e-03	3.693737e-04	7.029157e-03
447           	3.465236e-03	3.664095e-04	7.006382e-03
448           	3.376377e-03	3.634750e-04	6.980119e-03
449           	3.268779e-03	3.605705e-04	6.959471e-03
450           	3.208433e-03	3.577056e-04	6.911463e-03
451           	3.145282e-03	3.548857e-04	6.867780e-03
452           	3.144232e-03	3.520848e-04	6.821298e-03
453           	3.118539e-03	3.493031e-04	6.790808e-03
454           	3.111903e-03	3.465567e-04	6.743038e-03
455           	3.081369e-03	3.438225e-04	6.689889e-03
456           	3.099394e-03	3.411484e-04	6.637226e-03
457           	3.070282e-03	3.385168e-04	6.604219e-03
458           	3.046070e-03	3.359008e-04	6.541166e-03
459           	3.013306e-03	3.333196e-04	6.483939e-03
460           	3.035436e-03	3.307769e-04	6.425274e-03
461           	3.024506e-03	3.282549e-04	6.381695e-03
462           	3.054224e-03	3.257763e-04	6.323744e-03
463           	3.039401e-03	3.233114e-04	6.275697e-03
464           	3.071691e-03	3.209153e-04	6.226119e-03
465           	3.057786e-03	3.185501e-04	6.169681e-03
466           	3.075157e-03	3.162061e-04	6.108071e-03
467           	3.057366e-03	3.139120e-04	6.064209e-03
468           	3.087524e-03	3.116406e-04	6.006093e-03
469           	3.045384e-03	3.094213e-04	5.952564e-03
470           	3.061242e-03	3.072379e-04	5.894160e-03
471           	3.035381e-03	3.051059e-04	5.841887e-03
472           	3.077273e-03	3.030033e-04	5.782331e-03
473           	3.079503e-03	3.009601e-04	5.740862e-03
474           	3.093554e-03	2.989728e-04	5.676517e-03
475           	3.083639e-03	2.970506e-04	5.623700e-03
476           	3.104725e-03	2.952303e-04	5.570521e-03
477           	3.093641e-03	2.934612e-04	5.538044e-03
478           	3.077387e-03	2.917062e-04	5.477354e-03
479           	3.062204e-03	2.899609e-04	5.422477e-03
480           	3.064303e-03	2.882352e-04	5.367918e-03
481           	3.072969e-03	2.865247e-04	5.332410e-03
482           	3.076629e-03	2.848234e-04	5.276726e-03
483           	3.059759e-03	2.831418e-04	5.235031e-03
484           	3.089222e-03	2.814739e-04	5.191087e-03
485           	3.101480e-03	2.798160e-04	5.157849e-03
486           	3.071699e-03	2.781777e-04	5.107351e-03
487           	3.042441e-03	2.765508e-04	5.073027e-03
488           	3.045764e-03	2.749359e-04	5.037714e-03
489           	3.023871e-03	2.733395e-04	5.006562e-03
490           	3.010496e-03	2.717518e-04	4.965191e-03
491           	2.997001e-03	2.701823e-04	4.940205e-03
492           	3.001731e-03	2.686303e-04	4.906367e-03
493           	2.972290e-03	2.670932e-04	4.876518e-03
494           	2.971277e-03	2.655718e-04	4.853277e-03
495           	2.928298e-03	2.640600e-04	4.822465e-03
496           	2.927565e-03	2.625640e-04	4.786534e-03
497           	2.935135e-03	2.610776e-04	4.773587e-03
498           	2.909722e-03	2.596057e-04	4.734644e-03
499           	2.885047e-03	2.581438e-04	4.709955e-03
500           	2.892004e-03	2.566953e-04	4.699738e-03
501           	2.846617e-03	2.552565e-04	4.681209e-03
502           	2.822731e-03	2.538301e-04	4.662739e-03
503           	2.822940e-03	2.524132e-04	4.665649e-03
504           	2.798032e-03	2.510073e-04	4.644542e-03
505           	2.757177e-03	2.496115e-04	4.634174e-03
506           	2.771153e-03	2.482271e-04	4.635066e-03
507           	2.715225e-03	2.468511e-04	4.622118e-03
508           	2.704906e-03	2.454832e-04	4.608663e-03
509           	2.709935e-03	2.441235e-04	4.615749e-03
510           	2.678299e-03	2.427713e-04	4.599382e-03
511           	2.645768e-03	2.414269e-04	4.589697e-03
512           	2.668408e-03	2.400900e-04	4.588790e-03
513           	2.620760e-03	2.387605e-04	4.574626e-03
514           	2.607186e-03	2.374385e-04	4.563490e-03
515           	2.615890e-03	2.361240e-04	4.569971e-03
516           	2.589500e-03	2.348166e-04	4.554097e-03
517           	2.556685e-03	2.335168e-04	4.547281e-03
518           	2.591883e-03	2.322242e-04	4.550961e-03
519           	2.541966e-03	2.309391e-04	4.542117e-03
520           	2.534049e-03	2.296665e-04	4.535424e-03
521           	2.547122e-03	2.284072e-04	4.548364e-03
522           	2.493653e-03	2.271548e-04	4.538822e-03
523           	2.463399e-03	2.259096e-04	4.535399e-03
524           	2.478859e-03	2.246716e-04	4.542280e-03
525           	2.429846e-03	2.234403e-04	4.533987e-03
526           	2.414748e-03	2.222162e-04	4.528886e-03
527           	2.426073e-03	2.209990e-04	4.542743e-03
528           	2.379612e-03	2.197886e-04	4.533055e-03
529           	2.346219e-03	2.185851e-04	4.530736e-03
530           	2.365933e-03	2.173886e-04	4.539483e-03
531           	2.320073e-03	2.161986e-04	4.532596e-03
532           	2.302131e-03	2.150156e-04	4.528301e-03
533           	2.320053e-03	2.138393e-04	4.542390e-03
534           	2.309111e-03	2.126695e-04	4.530196e-03
535           	2.266376e-03	2.115066e-04	4.532816e-03
536           	2.282060e-03	2.103503e-04	4.540359e-03
537           	2.262659e-03	2.092005e-04	4.532018e-03
538           	2.359488e-03	2.080588e-04	4.475682e-03
539           	2.551610e-03	2.069241e-04	4.454278e-03
540           	2.679893e-03	2.057961e-04	4.523263e-03
541           	2.903437e-03	2.046751e-04	4.638363e-03
542           	3.122053e-03	2.035611e-04	4.754372e-03
543           	3.440799e-03	2.024592e-04	4.926265e-03
544           	3.831892e-03	2.013740e-04	5.100185e-03
545           	4.238257e-03	2.002969e-04	5.271192e-03
546           	4.610059e-03	1.992275e-04	5.414054e-03
547           	4.748796e-03	1.981657e-04	5.519659e-03
548           	4.899198e-03	1.971111e-04	5.589417e-03
549           	4.987553e-03	1.960635e-04	5.633984e-03
550           	5.011234e-03	1.950228e-04	5.656083e-03
551           	5.021555e-03	1.939889e-04	5.707201e-03
552           	5.143977e-03	1.929618e-04	5.760162e-03
553           	5.106529e-03	1.919412e-04	5.819509e-03