/*--------------------------------*- C++ -*----------------------------------*\
  =========                 |
  \\      /  F ield         | OpenFOAM: The Open Source CFD Toolbox
   \\    /   O peration     | Website:  https://openfoam.org
    \\  /    A nd           | Version:  10
     \\/     M anipulation  |
\*---------------------------------------------------------------------------*/
FoamFile
{
    format      ascii;
    class       volScalarField;
    location    "3416";
    object      nut;
}
// * * * * * * * * * * * * * * * * * * * * * * * * * * * * * * * * * * * * * //

dimensions      [0 2 -1 0 0 0 0];

internalField   nonuniform List<scalar> 
400
(
4.03592e-14
4.03406e-14
4.03582e-14
4.04241e-14
7.07863e-12
7.07537e-12
7.07846e-12
7.09007e-12
1.49043e-10
1.48974e-10
1.49039e-10
1.49283e-10
1.15351e-09
1.15298e-09
1.15348e-09
1.15536e-09
5.27576e-09
5.27333e-09
5.27563e-09
5.28422e-09
1.7602e-08
1.75939e-08
1.76016e-08
1.76302e-08
4.7692e-08
4.76703e-08
4.76913e-08
4.77687e-08
1.1153e-07
1.1148e-07
1.11529e-07
1.11711e-07
2.33699e-07
2.33598e-07
2.33704e-07
2.34083e-07
4.49616e-07
4.49433e-07
4.4964e-07
4.50371e-07
8.07535e-07
8.07233e-07
8.07619e-07
8.08931e-07
1.36995e-06
1.3695e-06
1.37019e-06
1.37241e-06
2.21393e-06
2.21335e-06
2.21452e-06
2.21811e-06
3.43004e-06
3.42941e-06
3.43136e-06
3.43692e-06
5.11947e-06
5.11904e-06
5.12218e-06
5.13047e-06
7.38959e-06
7.38978e-06
7.39473e-06
7.40671e-06
1.0348e-05
1.03495e-05
1.03571e-05
1.03739e-05
1.40959e-05
1.40996e-05
1.41112e-05
1.41341e-05
1.87214e-05
1.87285e-05
1.87455e-05
1.87762e-05
2.42934e-05
2.43051e-05
2.43296e-05
2.43699e-05
3.08573e-05
3.08746e-05
3.0909e-05
3.0961e-05
3.84313e-05
3.84548e-05
3.85019e-05
3.85684e-05
4.70061e-05
4.70356e-05
4.70981e-05
4.71814e-05
5.65448e-05
5.65792e-05
5.6659e-05
5.67629e-05
6.6986e-05
6.70229e-05
6.71211e-05
6.72503e-05
7.8247e-05
7.82822e-05
7.8399e-05
7.85594e-05
9.02282e-05
9.02569e-05
9.03915e-05
9.05891e-05
0.000102819
0.000102836
0.000102986
0.000103227
0.000115901
0.000115903
0.000116064
0.000116353
0.000129356
0.000129338
0.000129507
0.000129845
0.000143067
0.000143029
0.000143198
0.000143403
0.000156025
0.0001559
0.000155918
0.000156123
0.000168943
0.000168809
0.000168813
0.00016902
0.000182021
0.000181884
0.000181877
0.000182086
0.00019524
0.0001951
0.000195081
0.000195294
0.00020859
0.00020845
0.000208417
0.000208631
0.000222091
0.00022195
0.000221903
0.000222117
0.000235803
0.000235659
0.000235596
0.000235807
0.00024983
0.000249678
0.000249599
0.000249805
0.000264269
0.000264107
0.000264016
0.000264241
0.000277937
0.000277815
0.000277867
0.000278745
0.000290187
0.000290058
0.0002901
0.000291033
0.000302145
0.000302009
0.000302041
0.000303028
0.00031384
0.000313701
0.000313723
0.000314761
0.000325311
0.000325177
0.000325191
0.000326273
0.000336602
0.000336484
0.000336486
0.000337605
0.000347756
0.000347658
0.000347641
0.000348799
0.000358798
0.000358726
0.000358684
0.000359885
0.000369723
0.000369699
0.000369623
0.000370872
0.000380485
0.000380569
0.000380444
0.000381745
0.00039116
0.000391252
0.000391112
0.000392463
0.000401621
0.000401708
0.000401574
0.000402965
0.000411808
0.000411854
0.000411765
0.000413172
0.000421684
0.000421581
0.000421613
0.000423002
0.000430992
0.000430824
0.000431018
0.000432379
0.000439723
0.000439652
0.000439753
0.000441252
0.000447818
0.000447962
0.000447787
0.00044954
0.000455076
0.000455475
0.00045517
0.000457143
0.000461732
0.000462192
0.000461876
0.000463969
0.000467604
0.000468101
0.000467772
0.000469997
0.00047265
0.000473147
0.000472817
0.00047518
0.00047685
0.000477275
0.000477006
0.000479468
0.000480215
0.000480416
0.000480414
0.000482798
0.000482847
0.000482408
0.000482996
0.000485171
0.000484235
0.00048386
0.000484354
0.000486643
0.000484619
0.000484677
0.000484792
0.000487083
0.000484099
0.000484082
0.000484289
0.000486605
0.000482632
0.000482269
0.000482849
0.000485157
0.000480069
0.000479383
0.000480716
0.000482578
0.000476487
0.000475775
0.000477219
0.000479068
0.00047189
0.000471181
0.000472574
0.000474613
0.000466267
0.000465664
0.000466697
0.000469203
0.000459586
0.000459469
0.000459663
0.000462789
0.000451746
0.000452295
0.000452248
0.000455037
0.000442593
0.000443633
0.000443443
0.000446316
0.000433344
0.000433448
0.000433933
0.000436265
0.000422168
0.000421899
0.000423204
0.000425095
0.000409786
0.000410446
0.000410758
0.000412732
0.000396261
0.000397079
0.000397285
0.000399274
0.000381607
0.000382503
0.000382625
0.000384726
0.000365816
0.000366804
0.000366778
0.000369175
0.000348837
0.000350136
0.000349728
0.000352802
0.000330577
0.000332591
0.000331516
0.000335654
0.000312612
0.00031394
0.000313585
0.000317241
0.000294678
0.000294064
0.00029549
0.000297937
0.000275277
0.000274864
0.000276525
0.000278156
0.000255431
0.000256105
0.000256627
0.000258127
0.000235388
0.000236226
0.000236623
0.000238061
0.000215388
0.000216361
0.000216652
0.000218131
0.000195911
0.000196741
0.00019706
0.000198589
0.00017712
0.000177571
0.000178126
0.000179726
0.00015928
0.000158862
0.000160002
0.000161887
0.000142669
0.000142509
0.000142441
0.000145346
0.000127497
0.000127283
0.000127386
0.000129982
0.000113625
0.000114439
0.000114069
0.000116365
0.000102792
0.000102374
0.000103077
0.000104549
9.3437e-05
9.31403e-05
9.41255e-05
9.48903e-05
8.6326e-05
8.66769e-05
8.69522e-05
8.76661e-05
8.16074e-05
8.21188e-05
8.22477e-05
8.30649e-05
7.94508e-05
8.01987e-05
8.03438e-05
8.12022e-05
)
;

boundaryField
{
    inlet
    {
        type            cyclic;
    }
    outlet
    {
        type            cyclic;
    }
    fixedWalls-bottom
    {
        type            nutkWallFunction;
        Cmu             0.09;
        kappa           0.41;
        E               9.8;
        value           uniform 0;
    }
    fixedWalls-top
    {
        type            symmetry;
    }
    frontAndBack
    {
        type            empty;
    }
}


// ************************************************************************* //
