/*--------------------------------*- C++ -*----------------------------------*\
  =========                 |
  \\      /  F ield         | OpenFOAM: The Open Source CFD Toolbox
   \\    /   O peration     | Website:  https://openfoam.org
    \\  /    A nd           | Version:  10
     \\/     M anipulation  |
\*---------------------------------------------------------------------------*/
FoamFile
{
    format      ascii;
    class       volScalarField;
    location    "3416";
    object      p;
}
// * * * * * * * * * * * * * * * * * * * * * * * * * * * * * * * * * * * * * //

dimensions      [0 2 -2 0 0 0 0];

internalField   nonuniform List<scalar> 
400
(
-1.56398e-12
-1.20757e-06
-2.45256e-06
-1.24513e-06
-5.62348e-10
-1.20774e-06
-2.45201e-06
-1.24497e-06
-1.11724e-09
-1.20793e-06
-2.45145e-06
-1.24478e-06
-1.53876e-09
-1.20812e-06
-2.45103e-06
-1.24459e-06
-1.83337e-09
-1.20831e-06
-2.45074e-06
-1.24439e-06
-2.00959e-09
-1.20851e-06
-2.45056e-06
-1.24419e-06
-2.06373e-09
-1.20873e-06
-2.45051e-06
-1.24398e-06
-1.98863e-09
-1.20896e-06
-2.45058e-06
-1.24375e-06
-1.77874e-09
-1.20921e-06
-2.45079e-06
-1.24349e-06
-1.43012e-09
-1.20949e-06
-2.45114e-06
-1.24321e-06
-9.41843e-10
-1.2098e-06
-2.45163e-06
-1.24291e-06
-3.16351e-10
-1.21014e-06
-2.45225e-06
-1.24256e-06
4.38293e-10
-1.21051e-06
-2.45301e-06
-1.24219e-06
1.30732e-09
-1.21091e-06
-2.45388e-06
-1.2418e-06
2.26652e-09
-1.21131e-06
-2.45484e-06
-1.24139e-06
3.2805e-09
-1.2117e-06
-2.45585e-06
-1.24101e-06
4.29938e-09
-1.21202e-06
-2.45687e-06
-1.24069e-06
5.25638e-09
-1.21219e-06
-2.45783e-06
-1.24051e-06
6.06368e-09
-1.21213e-06
-2.45864e-06
-1.24057e-06
6.60876e-09
-1.21172e-06
-2.45918e-06
-1.24098e-06
6.74935e-09
-1.21082e-06
-2.45932e-06
-1.24189e-06
6.31592e-09
-1.20927e-06
-2.45889e-06
-1.24343e-06
5.1304e-09
-1.20696e-06
-2.4577e-06
-1.24574e-06
3.00966e-09
-1.2038e-06
-2.45558e-06
-1.24891e-06
-2.43615e-10
-1.19977e-06
-2.45233e-06
-1.25294e-06
-4.8291e-09
-1.19496e-06
-2.44774e-06
-1.25775e-06
-1.09426e-08
-1.18954e-06
-2.44163e-06
-1.26316e-06
-1.88298e-08
-1.18376e-06
-2.43374e-06
-1.26895e-06
-2.88198e-08
-1.17778e-06
-2.42375e-06
-1.27493e-06
-4.05455e-08
-1.17174e-06
-2.41202e-06
-1.28096e-06
-5.02548e-08
-1.16657e-06
-2.40232e-06
-1.28613e-06
-5.42592e-08
-1.16609e-06
-2.39831e-06
-1.28662e-06
-5.44692e-08
-1.1704e-06
-2.39811e-06
-1.2823e-06
-5.37551e-08
-1.17581e-06
-2.39882e-06
-1.27689e-06
-5.24599e-08
-1.18155e-06
-2.40011e-06
-1.27115e-06
-5.03449e-08
-1.1878e-06
-2.40223e-06
-1.2649e-06
-4.71819e-08
-1.19475e-06
-2.40539e-06
-1.25796e-06
-4.24149e-08
-1.2026e-06
-2.41016e-06
-1.2501e-06
-3.52595e-08
-1.21165e-06
-2.41731e-06
-1.24106e-06
-2.8253e-08
-1.22136e-06
-2.42432e-06
-1.23135e-06
-3.47101e-08
-1.22858e-06
-2.41786e-06
-1.22413e-06
-5.54215e-08
-1.23317e-06
-2.39715e-06
-1.21954e-06
-7.81979e-08
-1.23818e-06
-2.37437e-06
-1.21454e-06
-1.00912e-07
-1.24408e-06
-2.35166e-06
-1.20863e-06
-1.24049e-07
-1.2505e-06
-2.32852e-06
-1.20221e-06
-1.47683e-07
-1.25706e-06
-2.30489e-06
-1.19565e-06
-1.71576e-07
-1.2637e-06
-2.281e-06
-1.18901e-06
-1.95529e-07
-1.27049e-06
-2.25704e-06
-1.18221e-06
-2.19342e-07
-1.27712e-06
-2.23323e-06
-1.17558e-06
-2.42787e-07
-1.28273e-06
-2.20979e-06
-1.16997e-06
-2.66185e-07
-1.28762e-06
-2.18639e-06
-1.16508e-06
-2.90154e-07
-1.29274e-06
-2.16242e-06
-1.15996e-06
-3.15192e-07
-1.29821e-06
-2.13738e-06
-1.15449e-06
-3.42364e-07
-1.30415e-06
-2.11021e-06
-1.14855e-06
-3.7279e-07
-1.30919e-06
-2.07978e-06
-1.14352e-06
-4.0532e-07
-1.3131e-06
-2.04725e-06
-1.13961e-06
-4.3741e-07
-1.31787e-06
-2.01516e-06
-1.13484e-06
-4.69641e-07
-1.32191e-06
-1.98293e-06
-1.1308e-06
-5.0416e-07
-1.32352e-06
-1.94841e-06
-1.12919e-06
-5.41573e-07
-1.324e-06
-1.911e-06
-1.12871e-06
-5.82075e-07
-1.32446e-06
-1.8705e-06
-1.12826e-06
-6.26184e-07
-1.3253e-06
-1.82639e-06
-1.12742e-06
-6.75493e-07
-1.32595e-06
-1.77708e-06
-1.12677e-06
-7.33138e-07
-1.3272e-06
-1.71943e-06
-1.12552e-06
-7.95371e-07
-1.32995e-06
-1.6572e-06
-1.12277e-06
-8.51286e-07
-1.33254e-06
-1.60129e-06
-1.12017e-06
-9.02135e-07
-1.33449e-06
-1.55044e-06
-1.11821e-06
-9.58929e-07
-1.3357e-06
-1.49364e-06
-1.11701e-06
-1.02545e-06
-1.33047e-06
-1.42713e-06
-1.12223e-06
-1.0978e-06
-1.31764e-06
-1.35477e-06
-1.13507e-06
-1.17313e-06
-1.30415e-06
-1.27944e-06
-1.14856e-06
-1.25092e-06
-1.29668e-06
-1.20165e-06
-1.15603e-06
-1.32519e-06
-1.29813e-06
-1.12738e-06
-1.15456e-06
-1.38723e-06
-1.29811e-06
-1.06534e-06
-1.15457e-06
-1.4399e-06
-1.28801e-06
-1.01267e-06
-1.16467e-06
-1.49358e-06
-1.27598e-06
-9.58985e-07
-1.1767e-06
-1.55304e-06
-1.26262e-06
-8.9953e-07
-1.19007e-06
-1.60503e-06
-1.24496e-06
-8.4753e-07
-1.20774e-06
-1.64306e-06
-1.22666e-06
-8.09502e-07
-1.22605e-06
-1.67817e-06
-1.20878e-06
-7.74395e-07
-1.24393e-06
-1.71525e-06
-1.19244e-06
-7.37319e-07
-1.26029e-06
-1.7572e-06
-1.17812e-06
-6.95366e-07
-1.27461e-06
-1.80647e-06
-1.16452e-06
-6.46097e-07
-1.28821e-06
-1.86323e-06
-1.15082e-06
-5.89338e-07
-1.3019e-06
-1.92789e-06
-1.13912e-06
-5.24665e-07
-1.31358e-06
-1.98981e-06
-1.1252e-06
-4.62744e-07
-1.32749e-06
-2.03041e-06
-1.10656e-06
-4.22144e-07
-1.34614e-06
-2.05343e-06
-1.08772e-06
-3.99127e-07
-1.36499e-06
-2.07234e-06
-1.06985e-06
-3.80213e-07
-1.38287e-06
-2.09118e-06
-1.05362e-06
-3.6138e-07
-1.3991e-06
-2.11327e-06
-1.04025e-06
-3.39285e-07
-1.41248e-06
-2.14351e-06
-1.03248e-06
-3.09042e-07
-1.42025e-06
-2.1762e-06
-1.03476e-06
-2.76357e-07
-1.41796e-06
-2.20305e-06
-1.04199e-06
-2.49507e-07
-1.41073e-06
-2.22199e-06
-1.04432e-06
-2.30565e-07
-1.4084e-06
-2.23552e-06
-1.04355e-06
-2.17032e-07
-1.40917e-06
-2.24571e-06
-1.04214e-06
-2.06849e-07
-1.41058e-06
-2.25021e-06
-1.03977e-06
-2.02349e-07
-1.41296e-06
-2.25122e-06
-1.03797e-06
-2.01336e-07
-1.41476e-06
-2.25188e-06
-1.03677e-06
-2.00673e-07
-1.41595e-06
)
;

boundaryField
{
    inlet
    {
        type            cyclic;
    }
    outlet
    {
        type            cyclic;
    }
    fixedWalls-bottom
    {
        type            zeroGradient;
    }
    fixedWalls-top
    {
        type            symmetry;
    }
    frontAndBack
    {
        type            empty;
    }
}


// ************************************************************************* //
