/*--------------------------------*- C++ -*----------------------------------*\
  =========                 |
  \\      /  F ield         | OpenFOAM: The Open Source CFD Toolbox
   \\    /   O peration     | Website:  https://openfoam.org
    \\  /    A nd           | Version:  10
     \\/     M anipulation  |
\*---------------------------------------------------------------------------*/
FoamFile
{
    format      ascii;
    class       volSymmTensorField;
    location    "3416";
    object      R;
}
// * * * * * * * * * * * * * * * * * * * * * * * * * * * * * * * * * * * * * //

dimensions      [0 2 -2 0 0 0 0];

internalField   nonuniform List<symmTensor> 
400
(
(5.35124e-10 -1.3834e-13 -0 5.35124e-10 -0 5.35124e-10)
(5.34876e-10 -1.38279e-13 -0 5.34876e-10 -0 5.34876e-10)
(5.3511e-10 -1.38337e-13 -0 5.3511e-10 -0 5.3511e-10)
(5.35985e-10 -1.38561e-13 -0 5.35985e-10 -0 5.35985e-10)
(1.60552e-08 -2.41506e-11 -0 1.60552e-08 -0 1.60552e-08)
(1.60478e-08 -2.414e-11 -0 1.60478e-08 -0 1.60478e-08)
(1.60548e-08 -2.41502e-11 -0 1.60548e-08 -0 1.60548e-08)
(1.6081e-08 -2.41895e-11 -0 1.6081e-08 -0 1.6081e-08)
(1.1371e-07 -5.06087e-10 -0 1.1371e-07 -0 1.1371e-07)
(1.13657e-07 -5.05863e-10 -0 1.13657e-07 -0 1.13657e-07)
(1.13707e-07 -5.06079e-10 -0 1.13707e-07 -0 1.13707e-07)
(1.13892e-07 -5.06902e-10 -0 1.13892e-07 -0 1.13892e-07)
(4.13416e-07 -3.8979e-09 -0 4.13416e-07 -0 4.13416e-07)
(4.13225e-07 -3.89617e-09 -0 4.13225e-07 -0 4.13225e-07)
(4.13404e-07 -3.89784e-09 -0 4.13404e-07 -0 4.13404e-07)
(4.14077e-07 -3.90417e-09 -0 4.14077e-07 -0 4.14077e-07)
(1.06969e-06 -1.77399e-08 -0 1.06969e-06 -0 1.06969e-06)
(1.0692e-06 -1.77319e-08 -0 1.0692e-06 -0 1.0692e-06)
(1.06966e-06 -1.77396e-08 -0 1.06966e-06 -0 1.06966e-06)
(1.0714e-06 -1.77684e-08 -0 1.0714e-06 -0 1.0714e-06)
(2.26511e-06 -5.88895e-08 -0 2.26511e-06 -0 2.26511e-06)
(2.26407e-06 -5.88631e-08 -0 2.26407e-06 -0 2.26407e-06)
(2.26506e-06 -5.88887e-08 -0 2.26506e-06 -0 2.26506e-06)
(2.26874e-06 -5.89842e-08 -0 2.26874e-06 -0 2.26874e-06)
(4.20826e-06 -1.58739e-07 -0 4.20826e-06 -0 4.20826e-06)
(4.20634e-06 -1.58668e-07 -0 4.20634e-06 -0 4.20634e-06)
(4.20818e-06 -1.58738e-07 -0 4.20818e-06 -0 4.20818e-06)
(4.21503e-06 -1.58995e-07 -0 4.21503e-06 -0 4.21503e-06)
(7.13267e-06 -3.69262e-07 -0 7.13267e-06 -0 7.13267e-06)
(7.12945e-06 -3.691e-07 -0 7.12945e-06 -0 7.12945e-06)
(7.1326e-06 -3.69264e-07 -0 7.1326e-06 -0 7.1326e-06)
(7.14421e-06 -3.69865e-07 -0 7.14421e-06 -0 7.14421e-06)
(1.12956e-05 -7.69562e-07 -0 1.12956e-05 -0 1.12956e-05)
(1.12905e-05 -7.69234e-07 -0 1.12905e-05 -0 1.12905e-05)
(1.12956e-05 -7.69583e-07 -0 1.12956e-05 -0 1.12956e-05)
(1.1314e-05 -7.70837e-07 -0 1.1314e-05 -0 1.1314e-05)
(1.69758e-05 -1.47229e-06 -0 1.69758e-05 -0 1.69758e-05)
(1.69684e-05 -1.47169e-06 -0 1.69684e-05 -0 1.69684e-05)
(1.6976e-05 -1.47238e-06 -0 1.6976e-05 -0 1.6976e-05)
(1.70038e-05 -1.47478e-06 -0 1.70038e-05 -0 1.70038e-05)
(2.44706e-05 -2.62895e-06 -0 2.44706e-05 -0 2.44706e-05)
(2.44601e-05 -2.62797e-06 -0 2.44601e-05 -0 2.44601e-05)
(2.44713e-05 -2.62924e-06 -0 2.44713e-05 -0 2.44713e-05)
(2.45113e-05 -2.63354e-06 -0 2.45113e-05 -0 2.45113e-05)
(3.40902e-05 -4.4328e-06 -0 3.40902e-05 -0 3.40902e-05)
(3.40759e-05 -4.43135e-06 -0 3.40759e-05 -0 3.40759e-05)
(3.40918e-05 -4.4336e-06 -0 3.40918e-05 -0 3.40918e-05)
(3.41477e-05 -4.44086e-06 -0 3.41477e-05 -0 3.41477e-05)
(4.61511e-05 -7.11785e-06 -0 4.61511e-05 -0 4.61511e-05)
(4.61321e-05 -7.11596e-06 -0 4.61322e-05 -0 4.61322e-05)
(4.61541e-05 -7.1198e-06 -0 4.61541e-05 -0 4.61541e-05)
(4.623e-05 -7.13147e-06 -0 4.623e-05 -0 4.623e-05)
(6.0966e-05 -1.09527e-05 -0 6.0966e-05 -0 6.0966e-05)
(6.09416e-05 -1.09506e-05 -0 6.09417e-05 -0 6.09416e-05)
(6.09713e-05 -1.0957e-05 -0 6.09713e-05 -0 6.09713e-05)
(6.10719e-05 -1.09749e-05 -0 6.10719e-05 -0 6.10719e-05)
(7.88325e-05 -1.62284e-05 -0 7.88325e-05 -0 7.88325e-05)
(7.88017e-05 -1.6227e-05 -0 7.88018e-05 -0 7.88017e-05)
(7.88411e-05 -1.62371e-05 -0 7.88411e-05 -0 7.88411e-05)
(7.89716e-05 -1.62637e-05 -0 7.89715e-05 -0 7.89715e-05)
(0.000100019 -2.32411e-05 -0 0.000100019 -0 0.000100019)
(9.99806e-05 -2.32416e-05 -0 9.99806e-05 -0 9.99806e-05)
(0.000100032 -2.32575e-05 -0 0.000100032 -0 0.000100032)
(0.000100198 -2.32956e-05 -0 0.000100198 -0 0.000100198)
(0.000124749 -3.22702e-05 -0 0.000124749 -0 0.000124749)
(0.000124702 -3.22747e-05 -0 0.000124702 -0 0.000124702)
(0.000124767 -3.2299e-05 -0 0.000124767 -0 0.000124767)
(0.000124975 -3.2352e-05 -0 0.000124975 -0 0.000124975)
(0.000153188 -4.35548e-05 -0 0.000153188 -0 0.000153188)
(0.00015313 -4.35661e-05 -0 0.00015313 -0 0.00015313)
(0.000153212 -4.36023e-05 -0 0.000153212 -0 0.000153212)
(0.000153469 -4.3674e-05 -0 0.000153469 -0 0.000153469)
(0.000185427 -5.72718e-05 -0 0.000185426 -0 0.000185426)
(0.000185356 -5.72933e-05 -0 0.000185356 -0 0.000185356)
(0.000185457 -5.73459e-05 -0 0.000185458 -0 0.000185457)
(0.000185769 -5.74408e-05 -0 0.000185769 -0 0.000185769)
(0.000221472 -7.3518e-05 -0 0.000221471 -0 0.000221471)
(0.000221385 -7.35529e-05 -0 0.000221385 -0 0.000221385)
(0.000221508 -7.36277e-05 -0 0.000221508 -0 0.000221508)
(0.000221882 -7.37506e-05 -0 0.000221882 -0 0.000221882)
(0.000261238 -9.22981e-05 -0 0.000261237 -0 0.000261237)
(0.000261131 -9.23493e-05 -0 0.000261132 -0 0.000261131)
(0.000261278 -9.24526e-05 -0 0.000261278 -0 0.000261278)
(0.00026172 -9.26094e-05 -0 0.00026172 -0 0.00026172)
(0.000304545 -0.000113521 -0 0.000304544 -0 0.000304544)
(0.000304413 -0.00011359 -0 0.000304414 -0 0.000304413)
(0.000304584 -0.000113729 -0 0.000304585 -0 0.000304584)
(0.000305101 -0.000113926 -0 0.000305101 -0 0.000305101)
(0.000351121 -0.000137005 -0 0.00035112 -0 0.000351121)
(0.000350959 -0.00013709 -0 0.000350959 -0 0.000350959)
(0.000351154 -0.000137271 -0 0.000351154 -0 0.000351154)
(0.00035175 -0.000137514 -0 0.000351749 -0 0.00035175)
(0.000400613 -0.000162485 -0 0.000400612 -0 0.000400612)
(0.000400413 -0.000162583 -0 0.000400413 -0 0.000400413)
(0.000400629 -0.00016281 -0 0.00040063 -0 0.00040063)
(0.000401308 -0.000163106 -0 0.000401308 -0 0.000401308)
(0.000452594 -0.000189633 -0 0.000452593 -0 0.000452594)
(0.000452349 -0.000189738 -0 0.00045235 -0 0.000452349)
(0.000452584 -0.00019001 -0 0.000452585 -0 0.000452584)
(0.000453347 -0.000190372 -0 0.000453346 -0 0.000453346)
(0.000506586 -0.000218076 -0 0.000506585 -0 0.000506586)
(0.000506289 -0.000218175 -0 0.000506289 -0 0.000506289)
(0.000506536 -0.000218493 -0 0.000506536 -0 0.000506536)
(0.000507382 -0.000218931 -0 0.000507381 -0 0.000507381)
(0.000562073 -0.000247417 -0 0.000562073 -0 0.000562073)
(0.000561718 -0.000247498 -0 0.000561718 -0 0.000561718)
(0.000561969 -0.000247855 -0 0.000561969 -0 0.000561969)
(0.000562893 -0.000248384 -0 0.000562893 -0 0.000562893)
(0.000618521 -0.000277254 -0 0.000618522 -0 0.000618522)
(0.000618104 -0.000277304 -0 0.000618104 -0 0.000618104)
(0.00061835 -0.000277693 -0 0.000618349 -0 0.000618349)
(0.000619344 -0.000278322 -0 0.000619344 -0 0.000619344)
(0.000675399 -0.0003072 -0 0.000675401 -0 0.0006754)
(0.000674918 -0.000307209 -0 0.000674918 -0 0.000674918)
(0.000675147 -0.000307618 -0 0.000675145 -0 0.000675146)
(0.000676197 -0.000308353 -0 0.000676198 -0 0.000676198)
(0.000732189 -0.000336896 -0 0.000732193 -0 0.000732191)
(0.000731646 -0.000336855 -0 0.000731645 -0 0.000731645)
(0.000731846 -0.000337271 -0 0.000731842 -0 0.000731844)
(0.000732933 -0.000338125 -0 0.000732934 -0 0.000732934)
(0.000788405 -0.000366076 -0 0.000788411 -0 0.000788408)
(0.000787804 -0.000365985 -0 0.000787802 -0 0.000787803)
(0.00078796 -0.000366399 -0 0.000787954 -0 0.000787957)
(0.000789063 -0.000366915 -0 0.000789064 -0 0.000789063)
(0.000843611 -0.000392284 -0 0.000843617 -0 0.000843614)
(0.000842955 -0.000391977 -0 0.000842953 -0 0.000842954)
(0.000843053 -0.000392021 -0 0.000843046 -0 0.00084305)
(0.000844171 -0.000392543 -0 0.000844173 -0 0.000844172)
(0.00089753 -0.000417365 -0 0.000897537 -0 0.000897534)
(0.000896836 -0.00041704 -0 0.000896834 -0 0.000896835)
(0.000896878 -0.000417058 -0 0.000896871 -0 0.000896875)
(0.00089801 -0.000417586 -0 0.000898012 -0 0.000898011)
(0.000949925 -0.000441756 -0 0.000949931 -0 0.000949928)
(0.000949204 -0.000441419 -0 0.000949203 -0 0.000949203)
(0.000949188 -0.00044141 -0 0.000949182 -0 0.000949185)
(0.000950337 -0.000441945 -0 0.000950339 -0 0.000950338)
(0.00100058 -0.000465385 -0 0.00100058 -0 0.00100058)
(0.000999841 -0.000465041 -0 0.000999839 -0 0.00099984)
(0.000999763 -0.000465003 -0 0.000999758 -0 0.000999761)
(0.00100093 -0.000465546 -0 0.00100094 -0 0.00100094)
(0.00104929 -0.000488223 -0 0.0010493 -0 0.00104929)
(0.00104855 -0.000487876 -0 0.00104855 -0 0.00104855)
(0.00104841 -0.000487807 -0 0.00104841 -0 0.00104841)
(0.00104961 -0.000488358 -0 0.00104961 -0 0.00104961)
(0.00109591 -0.0005103 -0 0.00109591 -0 0.00109591)
(0.00109517 -0.000509951 -0 0.00109517 -0 0.00109517)
(0.00109497 -0.000509851 -0 0.00109497 -0 0.00109497)
(0.0010962 -0.000510409 -0 0.00109621 -0 0.00109621)
(0.00114028 -0.000531717 -0 0.00114028 -0 0.00114028)
(0.00113954 -0.000531364 -0 0.00113953 -0 0.00113953)
(0.00113928 -0.000531235 -0 0.00113928 -0 0.00113928)
(0.00114056 -0.000531798 -0 0.00114057 -0 0.00114056)
(0.00118226 -0.000552654 -0 0.00118226 -0 0.00118226)
(0.00118151 -0.000552294 -0 0.0011815 -0 0.00118151)
(0.00118121 -0.000552137 -0 0.00118121 -0 0.00118121)
(0.00118255 -0.000552701 -0 0.00118256 -0 0.00118255)
(0.0012217 -0.000573359 -0 0.0012217 -0 0.0012217)
(0.00122094 -0.00057299 -0 0.00122093 -0 0.00122094)
(0.0012206 -0.000572807 -0 0.00122061 -0 0.00122061)
(0.00122203 -0.000573369 -0 0.00122203 -0 0.00122203)
(0.00125844 -0.000591544 -0 0.00125843 -0 0.00125843)
(0.00125767 -0.00059128 -0 0.00125766 -0 0.00125766)
(0.0012573 -0.000591383 -0 0.00125731 -0 0.00125731)
(0.00125884 -0.000593227 -0 0.00125884 -0 0.00125884)
(0.0012924 -0.000606122 -0 0.00129239 -0 0.00129239)
(0.00129162 -0.000605859 -0 0.00129162 -0 0.00129162)
(0.00129123 -0.000605936 -0 0.00129124 -0 0.00129124)
(0.00129283 -0.000607807 -0 0.00129284 -0 0.00129284)
(0.00132364 -0.000619443 -0 0.00132364 -0 0.00132364)
(0.00132287 -0.000619183 -0 0.00132287 -0 0.00132287)
(0.00132245 -0.000619246 -0 0.00132246 -0 0.00132246)
(0.00132411 -0.000621198 -0 0.00132411 -0 0.00132411)
(0.00135223 -0.000631496 -0 0.00135223 -0 0.00135223)
(0.00135148 -0.00063124 -0 0.00135147 -0 0.00135148)
(0.00135103 -0.000631288 -0 0.00135103 -0 0.00135103)
(0.00135271 -0.000633316 -0 0.00135272 -0 0.00135272)
(0.00137823 -0.00064238 -0 0.00137822 -0 0.00137823)
(0.0013775 -0.000642141 -0 0.0013775 -0 0.0013775)
(0.00137701 -0.000642174 -0 0.00137701 -0 0.00137701)
(0.00137872 -0.00064426 -0 0.00137873 -0 0.00137872)
(0.00140169 -0.000652195 -0 0.00140169 -0 0.00140169)
(0.001401 -0.000651988 -0 0.001401 -0 0.001401)
(0.00140048 -0.000652001 -0 0.00140048 -0 0.00140048)
(0.0014022 -0.00065413 -0 0.0014022 -0 0.0014022)
(0.00142268 -0.000661031 -0 0.00142268 -0 0.00142268)
(0.00142204 -0.000660862 -0 0.00142203 -0 0.00142204)
(0.00142148 -0.000660841 -0 0.00142148 -0 0.00142148)
(0.0014232 -0.000663015 -0 0.0014232 -0 0.0014232)
(0.00144124 -0.000668944 -0 0.00144124 -0 0.00144124)
(0.00144064 -0.000668821 -0 0.00144064 -0 0.00144064)
(0.00144004 -0.000668755 -0 0.00144004 -0 0.00144004)
(0.00144176 -0.000670976 -0 0.00144176 -0 0.00144176)
(0.00145738 -0.000675944 -0 0.00145738 -0 0.00145738)
(0.00145684 -0.000675894 -0 0.00145684 -0 0.00145684)
(0.0014562 -0.000675772 -0 0.0014562 -0 0.0014562)
(0.00145792 -0.000678044 -0 0.00145792 -0 0.00145792)
(0.00147111 -0.000681966 -0 0.00147111 -0 0.00147111)
(0.00147062 -0.000682089 -0 0.00147062 -0 0.00147062)
(0.00146996 -0.000681886 -0 0.00146996 -0 0.00146996)
(0.00147166 -0.000684211 -0 0.00147166 -0 0.00147166)
(0.00148243 -0.000687161 -0 0.00148243 -0 0.00148243)
(0.00148196 -0.000687288 -0 0.00148196 -0 0.00148196)
(0.00148129 -0.000687067 -0 0.00148129 -0 0.00148129)
(0.00148297 -0.000689436 -0 0.00148297 -0 0.00148297)
(0.00149129 -0.000691349 -0 0.00149129 -0 0.00149129)
(0.00149084 -0.00069147 -0 0.00149084 -0 0.00149084)
(0.00149017 -0.00069126 -0 0.00149017 -0 0.00149017)
(0.00149183 -0.000693654 -0 0.00149183 -0 0.00149183)
(0.00149766 -0.000694478 -0 0.00149766 -0 0.00149766)
(0.00149721 -0.000694548 -0 0.00149721 -0 0.00149721)
(0.00149655 -0.000694404 -0 0.00149655 -0 0.00149655)
(0.00149819 -0.000696788 -0 0.00149819 -0 0.00149819)
(0.00150148 -0.000696552 -0 0.00150148 -0 0.00150148)
(0.00150103 -0.000696415 -0 0.00150103 -0 0.00150103)
(0.00150039 -0.000696436 -0 0.00150039 -0 0.00150039)
(0.00150201 -0.000698765 -0 0.00150201 -0 0.00150201)
(0.0015027 -0.000697239 -0 0.0015027 -0 0.0015027)
(0.00150226 -0.000697025 -0 0.00150226 -0 0.00150226)
(0.00150164 -0.000697274 -0 0.00150164 -0 0.00150164)
(0.00150324 -0.000699528 -0 0.00150324 -0 0.00150324)
(0.00150128 -0.00069661 -0 0.00150128 -0 0.00150128)
(0.00150088 -0.00069654 -0 0.00150088 -0 0.00150088)
(0.00150023 -0.000696652 -0 0.00150023 -0 0.00150023)
(0.00150185 -0.00069907 -0 0.00150185 -0 0.00150185)
(0.0014972 -0.000694657 -0 0.00149719 -0 0.00149719)
(0.00149685 -0.000694874 -0 0.00149685 -0 0.00149685)
(0.00149616 -0.000694608 -0 0.00149616 -0 0.00149616)
(0.0014978 -0.000697337 -0 0.00149781 -0 0.00149781)
(0.00149042 -0.000691155 -0 0.00149042 -0 0.00149042)
(0.00149012 -0.000691708 -0 0.00149012 -0 0.00149012)
(0.00148941 -0.000691281 -0 0.00148941 -0 0.00148941)
(0.00149108 -0.000694261 -0 0.00149108 -0 0.00149108)
(0.00148098 -0.000686518 -0 0.00148098 -0 0.00148098)
(0.0014807 -0.000687132 -0 0.0014807 -0 0.0014807)
(0.00147998 -0.000686702 -0 0.00147998 -0 0.00147998)
(0.00148167 -0.000689788 -0 0.00148167 -0 0.00148167)
(0.00146888 -0.000680543 -0 0.00146887 -0 0.00146888)
(0.00146859 -0.000681196 -0 0.00146859 -0 0.00146859)
(0.00146787 -0.000680762 -0 0.00146787 -0 0.00146787)
(0.00146957 -0.000683965 -0 0.00146958 -0 0.00146958)
(0.00145414 -0.000673261 -0 0.00145413 -0 0.00145413)
(0.00145381 -0.000673896 -0 0.0014538 -0 0.00145381)
(0.00145311 -0.000673485 -0 0.00145311 -0 0.00145311)
(0.00145482 -0.0006768 -0 0.00145482 -0 0.00145482)
(0.00143679 -0.000664708 -0 0.00143678 -0 0.00143679)
(0.00143638 -0.00066524 -0 0.00143637 -0 0.00143637)
(0.00143573 -0.000664924 -0 0.00143573 -0 0.00143573)
(0.00143742 -0.000668299 -0 0.00143743 -0 0.00143742)
(0.00141688 -0.000654952 -0 0.00141687 -0 0.00141687)
(0.00141634 -0.000655231 -0 0.00141634 -0 0.00141634)
(0.00141579 -0.000655235 -0 0.00141579 -0 0.00141579)
(0.00141744 -0.000658453 -0 0.00141744 -0 0.00141744)
(0.00139444 -0.000644206 -0 0.00139444 -0 0.00139444)
(0.00139377 -0.000643707 -0 0.00139376 -0 0.00139377)
(0.00139333 -0.000644434 -0 0.00139333 -0 0.00139333)
(0.00139492 -0.000647333 -0 0.00139492 -0 0.00139492)
(0.00136951 -0.000631902 -0 0.00136951 -0 0.00136951)
(0.00136876 -0.00063147 -0 0.00136876 -0 0.00136876)
(0.00136839 -0.000632089 -0 0.00136839 -0 0.00136839)
(0.00136993 -0.000635079 -0 0.00136993 -0 0.00136993)
(0.00134217 -0.00061842 -0 0.00134217 -0 0.00134217)
(0.00134139 -0.000618452 -0 0.00134139 -0 0.00134139)
(0.00134106 -0.000618661 -0 0.00134106 -0 0.00134106)
(0.00134254 -0.000621586 -0 0.00134254 -0 0.00134254)
(0.0013125 -0.000603909 -0 0.00131249 -0 0.00131249)
(0.00131168 -0.00060383 -0 0.00131168 -0 0.00131168)
(0.00131141 -0.000604172 -0 0.00131141 -0 0.00131141)
(0.00131284 -0.000607054 -0 0.00131284 -0 0.00131284)
(0.00128058 -0.000588384 -0 0.00128058 -0 0.00128058)
(0.00127971 -0.000587948 -0 0.00127971 -0 0.00127971)
(0.00127954 -0.000588669 -0 0.00127954 -0 0.00127954)
(0.00128091 -0.000591484 -0 0.00128091 -0 0.00128091)
(0.00124652 -0.00057174 -0 0.00124651 -0 0.00124652)
(0.00124559 -0.000570993 -0 0.00124559 -0 0.00124559)
(0.00124554 -0.000572498 -0 0.00124554 -0 0.00124554)
(0.00124683 -0.000574757 -0 0.00124683 -0 0.00124683)
(0.00121041 -0.000554135 -0 0.0012104 -0 0.00121041)
(0.00120946 -0.000553399 -0 0.00120946 -0 0.00120946)
(0.00120947 -0.000554962 -0 0.00120948 -0 0.00120947)
(0.00121071 -0.000557168 -0 0.00121071 -0 0.00121071)
(0.00117236 -0.000535624 -0 0.00117236 -0 0.00117236)
(0.00117143 -0.000534916 -0 0.00117143 -0 0.00117143)
(0.00117144 -0.000536409 -0 0.00117144 -0 0.00117144)
(0.00117266 -0.000538745 -0 0.00117266 -0 0.00117266)
(0.00113247 -0.000516259 -0 0.00113248 -0 0.00113247)
(0.00113163 -0.00051567 -0 0.00113163 -0 0.00113163)
(0.00113157 -0.000516802 -0 0.00113156 -0 0.00113156)
(0.00113279 -0.000519533 -0 0.00113278 -0 0.00113279)
(0.00109087 -0.00049608 -0 0.00109088 -0 0.00109087)
(0.00109014 -0.000495961 -0 0.00109014 -0 0.00109014)
(0.00108998 -0.000496252 -0 0.00108997 -0 0.00108998)
(0.0010912 -0.000499545 -0 0.00109119 -0 0.0010912)
(0.00104767 -0.000475074 -0 0.00104767 -0 0.00104767)
(0.00104707 -0.000475559 -0 0.00104708 -0 0.00104708)
(0.00104685 -0.000475623 -0 0.00104684 -0 0.00104684)
(0.00104801 -0.000478498 -0 0.001048 -0 0.001048)
(0.00100299 -0.0004531 -0 0.00100299 -0 0.00100299)
(0.00100251 -0.000454065 -0 0.00100252 -0 0.00100251)
(0.00100227 -0.000453949 -0 0.00100227 -0 0.00100227)
(0.00100335 -0.00045686 -0 0.00100334 -0 0.00100335)
(0.000957032 -0.000431435 -0 0.000957031 -0 0.000957031)
(0.000956578 -0.000431557 -0 0.000956585 -0 0.000956581)
(0.000956389 -0.000432015 -0 0.00095639 -0 0.00095639)
(0.00095736 -0.000434341 -0 0.000957353 -0 0.000957356)
(0.000909879 -0.000408393 -0 0.000909881 -0 0.00090988)
(0.000909454 -0.000408207 -0 0.00090946 -0 0.000909458)
(0.00090934 -0.000409377 -0 0.000909338 -0 0.000909339)
(0.000910197 -0.000411245 -0 0.000910191 -0 0.000910194)
(0.000861708 -0.000384805 -0 0.000861711 -0 0.00086171)
(0.000861393 -0.000385431 -0 0.000861397 -0 0.000861395)
(0.000861253 -0.000385677 -0 0.00086125 -0 0.000861251)
(0.000862031 -0.000387577 -0 0.000862027 -0 0.000862029)
(0.000812727 -0.000360755 -0 0.000812729 -0 0.000812728)
(0.000812509 -0.000361466 -0 0.000812511 -0 0.00081251)
(0.000812339 -0.00036164 -0 0.000812338 -0 0.000812339)
(0.000813063 -0.0003635 -0 0.000813061 -0 0.000813062)
(0.000763164 -0.000336332 -0 0.000763163 -0 0.000763164)
(0.000763015 -0.0003371 -0 0.000763015 -0 0.000763015)
(0.00076282 -0.000337188 -0 0.00076282 -0 0.00076282)
(0.000763511 -0.00033909 -0 0.000763512 -0 0.000763512)
(0.000713263 -0.000311618 -0 0.000713261 -0 0.000713262)
(0.000713159 -0.000312444 -0 0.000713157 -0 0.000713158)
(0.00071294 -0.000312416 -0 0.000712942 -0 0.000712941)
(0.000713632 -0.000314488 -0 0.000713635 -0 0.000713633)
(0.000663298 -0.000286676 -0 0.000663295 -0 0.000663296)
(0.000663223 -0.000287702 -0 0.00066322 -0 0.000663222)
(0.000662981 -0.00028741 -0 0.000662984 -0 0.000662983)
(0.000663707 -0.000289903 -0 0.00066371 -0 0.000663709)
(0.000613573 -0.000261499 -0 0.00061357 -0 0.000613572)
(0.000613515 -0.000263023 -0 0.000613513 -0 0.000613514)
(0.000613253 -0.000262262 -0 0.000613255 -0 0.000613254)
(0.00061402 -0.000265441 -0 0.000614022 -0 0.000614021)
(0.000564464 -0.000237335 -0 0.000564462 -0 0.000564463)
(0.000564335 -0.000238335 -0 0.000564335 -0 0.000564335)
(0.000564123 -0.000238114 -0 0.000564125 -0 0.000564124)
(0.000564854 -0.000240811 -0 0.000564855 -0 0.000564855)
(0.000516274 -0.000214009 -0 0.000516275 -0 0.000516275)
(0.000515985 -0.000213645 -0 0.000515988 -0 0.000515986)
(0.000515922 -0.000214645 -0 0.000515921 -0 0.000515922)
(0.000516541 -0.000216406 -0 0.000516538 -0 0.000516539)
(0.00046924 -0.000190574 -0 0.000469244 -0 0.000469243)
(0.0004689 -0.000190352 -0 0.000468904 -0 0.000468902)
(0.000468926 -0.000191453 -0 0.000468922 -0 0.000468923)
(0.000469425 -0.000192605 -0 0.000469421 -0 0.000469423)
(0.000423705 -0.000167854 -0 0.000423708 -0 0.000423706)
(0.000423438 -0.000168294 -0 0.000423442 -0 0.00042344)
(0.000423449 -0.000168626 -0 0.000423445 -0 0.000423447)
(0.00042385 -0.000169641 -0 0.000423846 -0 0.000423848)
(0.000380037 -0.000146059 -0 0.000380039 -0 0.000380038)
(0.000379855 -0.000146554 -0 0.000379857 -0 0.000379856)
(0.00037984 -0.0001468 -0 0.000379838 -0 0.000379839)
(0.000380171 -0.000147715 -0 0.000380169 -0 0.00038017)
(0.0003386 -0.000125402 -0 0.000338601 -0 0.0003386)
(0.000338475 -0.000125947 -0 0.000338476 -0 0.000338476)
(0.000338446 -0.000126113 -0 0.000338445 -0 0.000338446)
(0.000338731 -0.000126987 -0 0.00033873 -0 0.000338731)
(0.000299741 -0.000106203 -0 0.000299741 -0 0.000299741)
(0.000299637 -0.00010664 -0 0.000299636 -0 0.000299637)
(0.000299603 -0.00010681 -0 0.000299603 -0 0.000299603)
(0.000299859 -0.000107646 -0 0.00029986 -0 0.000299859)
(0.000263764 -8.85652e-05 -0 0.000263764 -0 0.000263764)
(0.00026365 -8.87931e-05 -0 0.000263648 -0 0.000263649)
(0.000263619 -8.90625e-05 -0 0.000263619 -0 0.000263619)
(0.000263859 -8.98668e-05 -0 0.00026386 -0 0.000263859)
(0.00023093 -7.26161e-05 -0 0.000230931 -0 0.00023093)
(0.000230789 -7.24384e-05 -0 0.000230788 -0 0.000230789)
(0.000230762 -7.29541e-05 -0 0.000230761 -0 0.000230762)
(0.000230999 -7.38085e-05 -0 0.000231 -0 0.000231)
(0.000201448 -5.84437e-05 -0 0.000201449 -0 0.000201449)
(0.000201329 -5.83864e-05 -0 0.000201329 -0 0.000201329)
(0.000201253 -5.83678e-05 -0 0.000201252 -0 0.000201252)
(0.000201501 -5.95471e-05 -0 0.000201501 -0 0.000201501)
(0.000175485 -4.60579e-05 -0 0.000175486 -0 0.000175485)
(0.000175395 -4.59782e-05 -0 0.000175396 -0 0.000175395)
(0.000175302 -4.60264e-05 -0 0.000175302 -0 0.000175302)
(0.000175527 -4.69583e-05 -0 0.000175526 -0 0.000175526)
(0.000153146 -3.53012e-05 -0 0.000153146 -0 0.000153146)
(0.000153098 -3.55484e-05 -0 0.000153099 -0 0.000153098)
(0.000153007 -3.54378e-05 -0 0.000153006 -0 0.000153006)
(0.00015319 -3.61513e-05 -0 0.000153189 -0 0.00015319)
(0.000134519 -2.6519e-05 -0 0.000134519 -0 0.000134519)
(0.00013446 -2.64115e-05 -0 0.000134461 -0 0.00013446)
(0.000134412 -2.65897e-05 -0 0.000134412 -0 0.000134412)
(0.000134546 -2.69728e-05 -0 0.000134545 -0 0.000134545)
(0.000119589 -1.9001e-05 -0 0.000119589 -0 0.000119589)
(0.000119535 -1.89424e-05 -0 0.000119535 -0 0.000119535)
(0.00011952 -1.91382e-05 -0 0.00011952 -0 0.000119519)
(0.000119609 -1.92978e-05 -0 0.000119609 -0 0.000119609)
(0.000108356 -1.26887e-05 -0 0.000108356 -0 0.000108356)
(0.000108325 -1.27391e-05 -0 0.000108325 -0 0.000108325)
(0.000108312 -1.2778e-05 -0 0.000108311 -0 0.000108311)
(0.000108378 -1.28855e-05 -0 0.000108378 -0 0.000108378)
(0.000100824 -7.26896e-06 -0 0.000100824 -0 0.000100824)
(0.000100809 -7.31315e-06 -0 0.000100809 -0 0.000100809)
(0.000100796 -7.32433e-06 -0 0.000100796 -0 0.000100796)
(0.000100853 -7.39796e-06 -0 0.000100853 -0 0.000100853)
(9.70215e-05 -2.37408e-06 -0 9.70215e-05 -0 9.70215e-05)
(9.70159e-05 -2.39598e-06 -0 9.70158e-05 -0 9.70158e-05)
(9.70061e-05 -2.40015e-06 -0 9.70061e-05 -0 9.70061e-05)
(9.70597e-05 -2.42592e-06 -0 9.70598e-05 -0 9.70598e-05)
)
;

boundaryField
{
    inlet
    {
        type            cyclic;
    }
    outlet
    {
        type            cyclic;
    }
    fixedWalls-bottom
    {
        type            kqRWallFunction;
        value           nonuniform List<symmTensor> 4((5.35124e-10 -0 -0 5.35124e-10 -0 5.35124e-10) (5.34876e-10 -0 -0 5.34876e-10 -0 5.34876e-10) (5.3511e-10 -0 -0 5.3511e-10 -0 5.3511e-10) (5.35985e-10 -0 -0 5.35985e-10 -0 5.35985e-10));
    }
    fixedWalls-top
    {
        type            symmetry;
    }
    frontAndBack
    {
        type            empty;
    }
}


// ************************************************************************* //
