/*--------------------------------*- C++ -*----------------------------------*\
  =========                 |
  \\      /  F ield         | OpenFOAM: The Open Source CFD Toolbox
   \\    /   O peration     | Website:  https://openfoam.org
    \\  /    A nd           | Version:  10
     \\/     M anipulation  |
\*---------------------------------------------------------------------------*/
FoamFile
{
    format      ascii;
    class       volScalarField;
    location    "2500";
    object      p;
}
// * * * * * * * * * * * * * * * * * * * * * * * * * * * * * * * * * * * * * //

dimensions      [0 2 -2 0 0 0 0];

internalField   nonuniform List<scalar> 
400
(
9.4742e-11
5.10288e-06
6.21654e-06
1.11887e-06
-7.47622e-10
5.10144e-06
6.2175e-06
1.12031e-06
-2.00218e-09
5.09972e-06
6.21881e-06
1.12203e-06
-2.98774e-09
5.09785e-06
6.21984e-06
1.1239e-06
-2.88831e-09
5.09585e-06
6.21978e-06
1.1259e-06
-1.0647e-09
5.09372e-06
6.218e-06
1.12803e-06
2.71056e-09
5.09127e-06
6.21428e-06
1.13048e-06
8.54555e-09
5.08831e-06
6.2085e-06
1.13344e-06
1.73178e-08
5.0836e-06
6.19979e-06
1.13816e-06
3.00584e-08
5.0759e-06
6.18713e-06
1.14587e-06
4.72499e-08
5.06498e-06
6.17001e-06
1.1568e-06
6.94372e-08
5.05077e-06
6.14791e-06
1.17102e-06
9.70422e-08
5.03342e-06
6.1204e-06
1.18837e-06
1.30277e-07
5.01359e-06
6.08726e-06
1.20822e-06
1.68955e-07
4.99189e-06
6.04869e-06
1.22992e-06
2.12536e-07
4.96889e-06
6.00522e-06
1.25294e-06
2.60354e-07
4.94491e-06
5.95751e-06
1.27694e-06
3.11729e-07
4.92015e-06
5.90626e-06
1.30171e-06
3.66122e-07
4.89474e-06
5.85199e-06
1.32715e-06
4.23076e-07
4.86885e-06
5.79516e-06
1.35306e-06
4.82162e-07
4.84247e-06
5.7362e-06
1.37946e-06
5.42861e-07
4.81554e-06
5.67564e-06
1.40642e-06
6.0468e-07
4.78806e-06
5.61395e-06
1.43394e-06
6.6723e-07
4.76009e-06
5.55154e-06
1.46193e-06
7.30218e-07
4.7316e-06
5.48869e-06
1.49046e-06
7.9331e-07
4.70254e-06
5.42574e-06
1.51954e-06
8.56177e-07
4.67284e-06
5.36301e-06
1.54928e-06
9.18486e-07
4.64246e-06
5.30085e-06
1.57969e-06
9.80027e-07
4.61133e-06
5.23944e-06
1.61086e-06
1.04071e-06
4.57949e-06
5.1789e-06
1.64273e-06
1.10054e-06
4.54709e-06
5.11921e-06
1.67517e-06
1.15959e-06
4.51425e-06
5.06031e-06
1.70805e-06
1.21786e-06
4.48091e-06
5.00217e-06
1.74143e-06
1.27527e-06
4.44706e-06
4.94491e-06
1.77532e-06
1.33172e-06
4.41263e-06
4.8886e-06
1.8098e-06
1.38723e-06
4.37759e-06
4.83322e-06
1.84487e-06
1.44193e-06
4.34197e-06
4.77866e-06
1.88054e-06
1.49596e-06
4.30584e-06
4.72477e-06
1.91671e-06
1.5495e-06
4.26935e-06
4.67136e-06
1.95325e-06
1.60289e-06
4.23267e-06
4.61812e-06
1.98996e-06
1.65628e-06
4.19591e-06
4.56485e-06
2.02678e-06
1.70942e-06
4.15902e-06
4.51185e-06
2.06372e-06
1.76172e-06
4.12189e-06
4.45968e-06
2.10089e-06
1.8128e-06
4.08443e-06
4.40873e-06
2.1384e-06
1.86285e-06
4.04654e-06
4.3588e-06
2.17634e-06
1.91243e-06
4.00825e-06
4.30935e-06
2.21467e-06
1.9616e-06
3.96964e-06
4.2603e-06
2.25333e-06
2.01007e-06
3.9308e-06
4.21195e-06
2.29222e-06
2.05749e-06
3.8918e-06
4.16464e-06
2.33127e-06
2.10385e-06
3.85272e-06
4.11841e-06
2.37039e-06
2.14949e-06
3.81357e-06
4.07287e-06
2.4096e-06
2.19497e-06
3.77423e-06
4.02751e-06
2.44898e-06
2.24056e-06
3.73452e-06
3.98202e-06
2.48874e-06
2.28629e-06
3.69426e-06
3.9364e-06
2.52905e-06
2.332e-06
3.65342e-06
3.89078e-06
2.56994e-06
2.37753e-06
3.61211e-06
3.84536e-06
2.6113e-06
2.42264e-06
3.57049e-06
3.80035e-06
2.65296e-06
2.46714e-06
3.5287e-06
3.75595e-06
2.69479e-06
2.51076e-06
3.48686e-06
3.71241e-06
2.73668e-06
2.55333e-06
3.44506e-06
3.66994e-06
2.77852e-06
2.59467e-06
3.40339e-06
3.62868e-06
2.82023e-06
2.63483e-06
3.36187e-06
3.58861e-06
2.86179e-06
2.67398e-06
3.32057e-06
3.54954e-06
2.90313e-06
2.71246e-06
3.27971e-06
3.51114e-06
2.94403e-06
2.75049e-06
3.23941e-06
3.47319e-06
2.98437e-06
2.78835e-06
3.19978e-06
3.43541e-06
3.02404e-06
2.82613e-06
3.1609e-06
3.39769e-06
3.06296e-06
2.86389e-06
3.12278e-06
3.36001e-06
3.10111e-06
2.90133e-06
3.08532e-06
3.32263e-06
3.1386e-06
2.9384e-06
3.04839e-06
3.28563e-06
3.17556e-06
2.97499e-06
3.01173e-06
3.24911e-06
3.21226e-06
3.01128e-06
2.97522e-06
3.21289e-06
3.2488e-06
3.04724e-06
2.93899e-06
3.17698e-06
3.28506e-06
3.08297e-06
2.90321e-06
3.14132e-06
3.32086e-06
3.11822e-06
2.8679e-06
3.10613e-06
3.35619e-06
3.15287e-06
2.83308e-06
3.07154e-06
3.39104e-06
3.18668e-06
2.79883e-06
3.03778e-06
3.42531e-06
3.21965e-06
2.76539e-06
3.00487e-06
3.45876e-06
3.2516e-06
2.73297e-06
2.97297e-06
3.49121e-06
3.28258e-06
2.70177e-06
2.94204e-06
3.52242e-06
3.31241e-06
2.67183e-06
2.91225e-06
3.55238e-06
3.34107e-06
2.64314e-06
2.88364e-06
3.58108e-06
3.36835e-06
2.61573e-06
2.8564e-06
3.6085e-06
3.3942e-06
2.58988e-06
2.83059e-06
3.63436e-06
3.41855e-06
2.56579e-06
2.80627e-06
3.65846e-06
3.44144e-06
2.54369e-06
2.78341e-06
3.68057e-06
3.46277e-06
2.52362e-06
2.76212e-06
3.70065e-06
3.48242e-06
2.50546e-06
2.74249e-06
3.71881e-06
3.50035e-06
2.48894e-06
2.72459e-06
3.73534e-06
3.51666e-06
2.47392e-06
2.70831e-06
3.75036e-06
3.53147e-06
2.46045e-06
2.69352e-06
3.76383e-06
3.54486e-06
2.44871e-06
2.68015e-06
3.77557e-06
3.55674e-06
2.4387e-06
2.66829e-06
3.78559e-06
3.56689e-06
2.43041e-06
2.65815e-06
3.79387e-06
3.57511e-06
2.42383e-06
2.64995e-06
3.80046e-06
3.58132e-06
2.41894e-06
2.64375e-06
3.80535e-06
3.5855e-06
2.41572e-06
2.63958e-06
3.80857e-06
3.58771e-06
2.41403e-06
2.63738e-06
3.81027e-06
3.58811e-06
2.41341e-06
2.63697e-06
3.81091e-06
3.58774e-06
2.4129e-06
2.63732e-06
3.81144e-06
)
;

boundaryField
{
    inlet
    {
        type            cyclic;
    }
    outlet
    {
        type            cyclic;
    }
    fixedWalls-bottom
    {
        type            zeroGradient;
    }
    fixedWalls-top
    {
        type            symmetry;
    }
    frontAndBack
    {
        type            empty;
    }
}


// ************************************************************************* //
