/*--------------------------------*- C++ -*----------------------------------*\
  =========                 |
  \\      /  F ield         | OpenFOAM: The Open Source CFD Toolbox
   \\    /   O peration     | Website:  https://openfoam.org
    \\  /    A nd           | Version:  10
     \\/     M anipulation  |
\*---------------------------------------------------------------------------*/
FoamFile
{
    format      ascii;
    class       volVectorField;
    location    "2500";
    object      U;
}
// * * * * * * * * * * * * * * * * * * * * * * * * * * * * * * * * * * * * * //

dimensions      [0 1 -1 0 0 0 0];

internalField   nonuniform List<vector> 
400
(
(0.0547816 2.17488e-09 0)
(0.0547834 -2.42742e-09 0)
(0.0547856 -1.4783e-09 0)
(0.0547816 2.63444e-09 0)
(0.164438 -2.32557e-08 0)
(0.164443 -3.76167e-08 0)
(0.164449 1.60992e-08 0)
(0.164437 3.7764e-08 0)
(0.274233 -6.02136e-08 0)
(0.274243 -1.04716e-07 0)
(0.274251 5.62643e-08 0)
(0.274231 1.05075e-07 0)
(0.380419 -1.33219e-07 0)
(0.380432 -2.03959e-07 0)
(0.380441 1.29948e-07 0)
(0.380413 2.04399e-07 0)
(0.475529 -2.36704e-07 0)
(0.475544 -3.21014e-07 0)
(0.475553 2.3387e-07 0)
(0.47552 3.21507e-07 0)
(0.554534 -3.62505e-07 0)
(0.554548 -4.38076e-07 0)
(0.554556 3.6012e-07 0)
(0.554521 4.38604e-07 0)
(0.618157 -5.03462e-07 0)
(0.61817 -5.44222e-07 0)
(0.618177 5.01394e-07 0)
(0.618141 5.44762e-07 0)
(0.669534 -6.59483e-07 0)
(0.669545 -6.29362e-07 0)
(0.669549 6.57658e-07 0)
(0.669514 6.29907e-07 0)
(0.711573 -8.22724e-07 0)
(0.711583 -7.00177e-07 0)
(0.711585 8.2108e-07 0)
(0.71155 7.00722e-07 0)
(0.746482 -9.91539e-07 0)
(0.746491 -7.54927e-07 0)
(0.746492 9.90056e-07 0)
(0.746458 7.55474e-07 0)
(0.775873 -1.15758e-06 0)
(0.77588 -8.01715e-07 0)
(0.775881 1.15621e-06 0)
(0.775849 8.0226e-07 0)
(0.800905 -1.31653e-06 0)
(0.800912 -8.42834e-07 0)
(0.800912 1.31528e-06 0)
(0.800883 8.43381e-07 0)
(0.822438 -1.46447e-06 0)
(0.822444 -8.79824e-07 0)
(0.822445 1.46331e-06 0)
(0.822418 8.80369e-07 0)
(0.841123 -1.59824e-06 0)
(0.841128 -9.13228e-07 0)
(0.841129 1.59716e-06 0)
(0.841106 9.13774e-07 0)
(0.857463 -1.71587e-06 0)
(0.857467 -9.42794e-07 0)
(0.857468 1.71485e-06 0)
(0.857448 9.43338e-07 0)
(0.871853 -1.81659e-06 0)
(0.871856 -9.67789e-07 0)
(0.871857 1.81563e-06 0)
(0.87184 9.68333e-07 0)
(0.884608 -1.90073e-06 0)
(0.88461 -9.87646e-07 0)
(0.884611 1.89981e-06 0)
(0.884597 9.88189e-07 0)
(0.895982 -1.96928e-06 0)
(0.895983 -1.00212e-06 0)
(0.895984 1.96841e-06 0)
(0.895973 1.00266e-06 0)
(0.906183 -2.02354e-06 0)
(0.906183 -1.01128e-06 0)
(0.906184 2.02271e-06 0)
(0.906175 1.01183e-06 0)
(0.915381 -2.06497e-06 0)
(0.91538 -1.01532e-06 0)
(0.915381 2.06417e-06 0)
(0.915374 1.01586e-06 0)
(0.923716 -2.09504e-06 0)
(0.923714 -1.01449e-06 0)
(0.923715 2.09426e-06 0)
(0.92371 1.01503e-06 0)
(0.931305 -2.11522e-06 0)
(0.931303 -1.00915e-06 0)
(0.931303 2.11446e-06 0)
(0.9313 1.00969e-06 0)
(0.938245 -2.12693e-06 0)
(0.938243 -9.99711e-07 0)
(0.938243 2.1262e-06 0)
(0.938242 1.00025e-06 0)
(0.94462 -2.13146e-06 0)
(0.944618 -9.86635e-07 0)
(0.944618 2.13074e-06 0)
(0.944617 9.87176e-07 0)
(0.950499 -2.12989e-06 0)
(0.950496 -9.7038e-07 0)
(0.950496 2.12919e-06 0)
(0.950496 9.7092e-07 0)
(0.95594 -2.12316e-06 0)
(0.955937 -9.51385e-07 0)
(0.955937 2.12248e-06 0)
(0.955938 9.51925e-07 0)
(0.960994 -2.11216e-06 0)
(0.960991 -9.30095e-07 0)
(0.960991 2.11149e-06 0)
(0.960992 9.30634e-07 0)
(0.965704 -2.09765e-06 0)
(0.9657 -9.07004e-07 0)
(0.9657 2.09699e-06 0)
(0.965703 9.07543e-07 0)
(0.970107 -2.08038e-06 0)
(0.970103 -8.82518e-07 0)
(0.970103 2.07973e-06 0)
(0.970106 8.83057e-07 0)
(0.974235 -2.06088e-06 0)
(0.974231 -8.57003e-07 0)
(0.974231 2.06024e-06 0)
(0.974234 8.57542e-07 0)
(0.978116 -2.03964e-06 0)
(0.978112 -8.30668e-07 0)
(0.978112 2.03901e-06 0)
(0.978115 8.31207e-07 0)
(0.981774 -2.01701e-06 0)
(0.98177 -8.03677e-07 0)
(0.98177 2.01639e-06 0)
(0.981773 8.04216e-07 0)
(0.985229 -1.99336e-06 0)
(0.985226 -7.76149e-07 0)
(0.985225 1.99274e-06 0)
(0.985229 7.76687e-07 0)
(0.988502 -1.96902e-06 0)
(0.988498 -7.48242e-07 0)
(0.988498 1.96841e-06 0)
(0.988502 7.48781e-07 0)
(0.991607 -1.94433e-06 0)
(0.991604 -7.20143e-07 0)
(0.991603 1.94373e-06 0)
(0.991607 7.20681e-07 0)
(0.994559 -1.91959e-06 0)
(0.994556 -6.92089e-07 0)
(0.994556 1.91899e-06 0)
(0.99456 6.92627e-07 0)
(0.997372 -1.89497e-06 0)
(0.997369 -6.64327e-07 0)
(0.997368 1.89438e-06 0)
(0.997372 6.64864e-07 0)
(1.00006 -1.87056e-06 0)
(1.00005 -6.37069e-07 0)
(1.00005 1.86997e-06 0)
(1.00006 6.37607e-07 0)
(1.00262 -1.8462e-06 0)
(1.00262 -6.10364e-07 0)
(1.00262 1.84562e-06 0)
(1.00262 6.109e-07 0)
(1.00508 -1.82173e-06 0)
(1.00507 -5.84348e-07 0)
(1.00507 1.82115e-06 0)
(1.00508 5.84884e-07 0)
(1.00743 -1.79688e-06 0)
(1.00743 -5.58936e-07 0)
(1.00743 1.7963e-06 0)
(1.00743 5.59472e-07 0)
(1.00969 -1.77157e-06 0)
(1.00969 -5.34134e-07 0)
(1.00969 1.771e-06 0)
(1.00969 5.34668e-07 0)
(1.01186 -1.74595e-06 0)
(1.01186 -5.0995e-07 0)
(1.01186 1.74538e-06 0)
(1.01186 5.10485e-07 0)
(1.01395 -1.72028e-06 0)
(1.01395 -4.86444e-07 0)
(1.01395 1.71971e-06 0)
(1.01395 4.86977e-07 0)
(1.01596 -1.69471e-06 0)
(1.01596 -4.63751e-07 0)
(1.01596 1.69415e-06 0)
(1.01597 4.64284e-07 0)
(1.01791 -1.66931e-06 0)
(1.0179 -4.41867e-07 0)
(1.0179 1.66875e-06 0)
(1.01791 4.42399e-07 0)
(1.01978 -1.64392e-06 0)
(1.01978 -4.20863e-07 0)
(1.01978 1.64336e-06 0)
(1.01978 4.21394e-07 0)
(1.02159 -1.61844e-06 0)
(1.02159 -4.00688e-07 0)
(1.02159 1.61788e-06 0)
(1.02159 4.01218e-07 0)
(1.02334 -1.59285e-06 0)
(1.02334 -3.81236e-07 0)
(1.02334 1.5923e-06 0)
(1.02334 3.81764e-07 0)
(1.02503 -1.56728e-06 0)
(1.02503 -3.62422e-07 0)
(1.02503 1.56673e-06 0)
(1.02504 3.6295e-07 0)
(1.02667 -1.54184e-06 0)
(1.02667 -3.44167e-07 0)
(1.02667 1.5413e-06 0)
(1.02668 3.44693e-07 0)
(1.02826 -1.51657e-06 0)
(1.02826 -3.26436e-07 0)
(1.02826 1.51602e-06 0)
(1.02827 3.2696e-07 0)
(1.02981 -1.4913e-06 0)
(1.0298 -3.09229e-07 0)
(1.0298 1.49076e-06 0)
(1.02981 3.09751e-07 0)
(1.0313 -1.4658e-06 0)
(1.0313 -2.92601e-07 0)
(1.0313 1.46526e-06 0)
(1.0313 2.93121e-07 0)
(1.03275 -1.43982e-06 0)
(1.03275 -2.76619e-07 0)
(1.03275 1.43929e-06 0)
(1.03275 2.77137e-07 0)
(1.03416 -1.41321e-06 0)
(1.03416 -2.61352e-07 0)
(1.03416 1.41268e-06 0)
(1.03416 2.61868e-07 0)
(1.03553 -1.38587e-06 0)
(1.03553 -2.46834e-07 0)
(1.03553 1.38534e-06 0)
(1.03553 2.47347e-07 0)
(1.03686 -1.3578e-06 0)
(1.03686 -2.33067e-07 0)
(1.03686 1.35727e-06 0)
(1.03686 2.33578e-07 0)
(1.03815 -1.32905e-06 0)
(1.03815 -2.20029e-07 0)
(1.03815 1.32853e-06 0)
(1.03815 2.20538e-07 0)
(1.03941 -1.29975e-06 0)
(1.03941 -2.07698e-07 0)
(1.03941 1.29923e-06 0)
(1.03941 2.08203e-07 0)
(1.04063 -1.2701e-06 0)
(1.04063 -1.96067e-07 0)
(1.04063 1.26958e-06 0)
(1.04063 1.96569e-07 0)
(1.04182 -1.24032e-06 0)
(1.04182 -1.85177e-07 0)
(1.04182 1.23981e-06 0)
(1.04182 1.85675e-07 0)
(1.04297 -1.2106e-06 0)
(1.04297 -1.75065e-07 0)
(1.04297 1.21009e-06 0)
(1.04298 1.7556e-07 0)
(1.0441 -1.18097e-06 0)
(1.0441 -1.65687e-07 0)
(1.0441 1.18047e-06 0)
(1.0441 1.66178e-07 0)
(1.04519 -1.15135e-06 0)
(1.04519 -1.56914e-07 0)
(1.04519 1.15086e-06 0)
(1.04519 1.574e-07 0)
(1.04625 -1.12157e-06 0)
(1.04625 -1.48607e-07 0)
(1.04625 1.12108e-06 0)
(1.04625 1.49089e-07 0)
(1.04728 -1.09152e-06 0)
(1.04728 -1.40678e-07 0)
(1.04728 1.09103e-06 0)
(1.04729 1.41155e-07 0)
(1.04829 -1.06116e-06 0)
(1.04829 -1.33069e-07 0)
(1.04829 1.06068e-06 0)
(1.04829 1.33541e-07 0)
(1.04926 -1.03058e-06 0)
(1.04926 -1.25741e-07 0)
(1.04926 1.0301e-06 0)
(1.04926 1.26208e-07 0)
(1.05021 -9.99824e-07 0)
(1.05021 -1.18585e-07 0)
(1.05021 9.99357e-07 0)
(1.05021 1.19045e-07 0)
(1.05113 -9.6883e-07 0)
(1.05112 -1.11683e-07 0)
(1.05112 9.6837e-07 0)
(1.05113 1.12137e-07 0)
(1.05201 -9.37561e-07 0)
(1.05201 -1.05045e-07 0)
(1.05201 9.37109e-07 0)
(1.05202 1.05492e-07 0)
(1.05288 -9.05875e-07 0)
(1.05288 -9.88065e-08 0)
(1.05288 9.05431e-07 0)
(1.05288 9.92464e-08 0)
(1.05371 -8.73749e-07 0)
(1.05371 -9.30498e-08 0)
(1.05371 8.73313e-07 0)
(1.05371 9.34815e-08 0)
(1.05452 -8.41204e-07 0)
(1.05452 -8.78195e-08 0)
(1.05452 8.40777e-07 0)
(1.05452 8.82433e-08 0)
(1.0553 -8.08267e-07 0)
(1.0553 -8.31254e-08 0)
(1.0553 8.0785e-07 0)
(1.0553 8.35401e-08 0)
(1.05605 -7.74962e-07 0)
(1.05605 -7.89633e-08 0)
(1.05605 7.74555e-07 0)
(1.05605 7.93687e-08 0)
(1.05677 -7.41312e-07 0)
(1.05677 -7.53182e-08 0)
(1.05677 7.40916e-07 0)
(1.05677 7.57129e-08 0)
(1.05746 -7.07329e-07 0)
(1.05746 -7.21634e-08 0)
(1.05746 7.06945e-07 0)
(1.05747 7.25475e-08 0)
(1.05813 -6.73035e-07 0)
(1.05813 -6.94678e-08 0)
(1.05813 6.72664e-07 0)
(1.05813 6.98399e-08 0)
(1.05877 -6.38444e-07 0)
(1.05877 -6.72042e-08 0)
(1.05877 6.38086e-07 0)
(1.05877 6.75639e-08 0)
(1.05937 -6.03591e-07 0)
(1.05937 -6.53536e-08 0)
(1.05937 6.03247e-07 0)
(1.05938 6.56994e-08 0)
(1.05995 -5.6851e-07 0)
(1.05995 -6.38954e-08 0)
(1.05995 5.6818e-07 0)
(1.05995 6.42274e-08 0)
(1.0605 -5.3327e-07 0)
(1.0605 -6.28002e-08 0)
(1.0605 5.32957e-07 0)
(1.0605 6.31169e-08 0)
(1.06101 -4.97942e-07 0)
(1.06101 -6.20033e-08 0)
(1.06101 4.97645e-07 0)
(1.06101 6.23044e-08 0)
(1.06149 -4.62636e-07 0)
(1.06149 -6.13967e-08 0)
(1.06149 4.62355e-07 0)
(1.06149 6.16808e-08 0)
(1.06194 -4.27472e-07 0)
(1.06194 -6.08201e-08 0)
(1.06194 4.2721e-07 0)
(1.06194 6.10873e-08 0)
(1.06236 -3.92643e-07 0)
(1.06236 -6.0122e-08 0)
(1.06236 3.92399e-07 0)
(1.06236 6.03709e-08 0)
(1.06274 -3.58199e-07 0)
(1.06274 -5.92139e-08 0)
(1.06274 3.57975e-07 0)
(1.06274 5.94444e-08 0)
(1.06308 -3.2425e-07 0)
(1.06308 -5.80775e-08 0)
(1.06308 3.24044e-07 0)
(1.06308 5.82884e-08 0)
(1.06338 -2.90762e-07 0)
(1.06338 -5.6681e-08 0)
(1.06338 2.90576e-07 0)
(1.06339 5.68723e-08 0)
(1.06365 -2.57725e-07 0)
(1.06365 -5.48983e-08 0)
(1.06365 2.57559e-07 0)
(1.06365 5.5069e-08 0)
(1.06387 -2.25172e-07 0)
(1.06387 -5.25832e-08 0)
(1.06387 2.25027e-07 0)
(1.06387 5.27331e-08 0)
(1.06405 -1.93175e-07 0)
(1.06405 -4.95507e-08 0)
(1.06405 1.93051e-07 0)
(1.06406 4.96789e-08 0)
(1.06419 -1.61817e-07 0)
(1.06419 -4.56171e-08 0)
(1.06419 1.61714e-07 0)
(1.06419 4.57233e-08 0)
(1.06428 -1.31169e-07 0)
(1.06428 -4.05991e-08 0)
(1.06428 1.31089e-07 0)
(1.06428 4.06823e-08 0)
(1.06432 -1.01252e-07 0)
(1.06432 -3.42377e-08 0)
(1.06432 1.01194e-07 0)
(1.06432 3.42974e-08 0)
(1.06431 -7.20483e-08 0)
(1.06431 -2.62858e-08 0)
(1.06431 7.20143e-08 0)
(1.06431 2.6321e-08 0)
(1.06425 -4.33863e-08 0)
(1.06425 -1.65798e-08 0)
(1.06425 4.33761e-08 0)
(1.06425 1.65841e-08 0)
(1.06412 -1.45622e-08 0)
(1.06412 -5.68957e-09 0)
(1.06412 1.45612e-08 0)
(1.06413 5.69474e-09 0)
)
;

boundaryField
{
    inlet
    {
        type            cyclic;
    }
    outlet
    {
        type            cyclic;
    }
    fixedWalls-bottom
    {
        type            noSlip;
    }
    fixedWalls-top
    {
        type            symmetry;
    }
    frontAndBack
    {
        type            empty;
    }
}


// ************************************************************************* //
