/*--------------------------------*- C++ -*----------------------------------*\
  =========                 |
  \\      /  F ield         | OpenFOAM: The Open Source CFD Toolbox
   \\    /   O peration     | Website:  https://openfoam.org
    \\  /    A nd           | Version:  10
     \\/     M anipulation  |
\*---------------------------------------------------------------------------*/
FoamFile
{
    format      ascii;
    class       volScalarField;
    location    "5000";
    object      k;
}
// * * * * * * * * * * * * * * * * * * * * * * * * * * * * * * * * * * * * * //

dimensions      [0 2 -2 0 0 0 0];

internalField   nonuniform List<scalar> 
400
(
6.81448e-13
6.80863e-13
6.80513e-13
6.80933e-13
2.04414e-11
2.04239e-11
2.04134e-11
2.0426e-11
1.44751e-10
1.44627e-10
1.44552e-10
1.44642e-10
5.26207e-10
5.25755e-10
5.25485e-10
5.25809e-10
1.3614e-09
1.36023e-09
1.35953e-09
1.36037e-09
2.88279e-09
2.88032e-09
2.87884e-09
2.88061e-09
5.35678e-09
5.35218e-09
5.34944e-09
5.35273e-09
9.08374e-09
9.07594e-09
9.07128e-09
9.07685e-09
1.43988e-08
1.43864e-08
1.4379e-08
1.43878e-08
2.16725e-08
2.16539e-08
2.16428e-08
2.1656e-08
3.1311e-08
3.12842e-08
3.12682e-08
3.12872e-08
4.3754e-08
4.37166e-08
4.36942e-08
4.37206e-08
5.94691e-08
5.94184e-08
5.93878e-08
5.94235e-08
7.89416e-08
7.88745e-08
7.88339e-08
7.88809e-08
1.02659e-07
1.02572e-07
1.02519e-07
1.0258e-07
1.31088e-07
1.30978e-07
1.3091e-07
1.30987e-07
1.6465e-07
1.64514e-07
1.64429e-07
1.64524e-07
2.03691e-07
2.03526e-07
2.03421e-07
2.03537e-07
2.48457e-07
2.48261e-07
2.48132e-07
2.48273e-07
2.9907e-07
2.98841e-07
2.98687e-07
2.98853e-07
3.55515e-07
3.55253e-07
3.55069e-07
3.55265e-07
4.17635e-07
4.17343e-07
4.17128e-07
4.17354e-07
4.85142e-07
4.84822e-07
4.84573e-07
4.84833e-07
5.57624e-07
5.57281e-07
5.56996e-07
5.57291e-07
6.34565e-07
6.34205e-07
6.33882e-07
6.34214e-07
7.15352e-07
7.14985e-07
7.14622e-07
7.14991e-07
7.99283e-07
7.98916e-07
7.98513e-07
7.98921e-07
8.8554e-07
8.85185e-07
8.84741e-07
8.85188e-07
9.7314e-07
9.72809e-07
9.72326e-07
9.72812e-07
1.06116e-06
1.06086e-06
1.06034e-06
1.06086e-06
1.14901e-06
1.14874e-06
1.14819e-06
1.14875e-06
1.23614e-06
1.2359e-06
1.23532e-06
1.23592e-06
1.32202e-06
1.32183e-06
1.32122e-06
1.32185e-06
1.4062e-06
1.40604e-06
1.40541e-06
1.40607e-06
1.48821e-06
1.48809e-06
1.48744e-06
1.48813e-06
1.56764e-06
1.56755e-06
1.56689e-06
1.5676e-06
1.64505e-06
1.64498e-06
1.6443e-06
1.64504e-06
1.7209e-06
1.72083e-06
1.72013e-06
1.72089e-06
1.7955e-06
1.79543e-06
1.79469e-06
1.79549e-06
1.86903e-06
1.86896e-06
1.86819e-06
1.86902e-06
1.9416e-06
1.94153e-06
1.94073e-06
1.94159e-06
2.01327e-06
2.0132e-06
2.01236e-06
2.01326e-06
2.08403e-06
2.08395e-06
2.08307e-06
2.08401e-06
2.15384e-06
2.15376e-06
2.15284e-06
2.15382e-06
2.22263e-06
2.22255e-06
2.2216e-06
2.22261e-06
2.29034e-06
2.29025e-06
2.28925e-06
2.29031e-06
2.35684e-06
2.35675e-06
2.35571e-06
2.35682e-06
2.42204e-06
2.42195e-06
2.42086e-06
2.42202e-06
2.48581e-06
2.4857e-06
2.48457e-06
2.48578e-06
2.54801e-06
2.54789e-06
2.54671e-06
2.54798e-06
2.6085e-06
2.60837e-06
2.60714e-06
2.60847e-06
2.66714e-06
2.66698e-06
2.6657e-06
2.6671e-06
2.72375e-06
2.72358e-06
2.72224e-06
2.72371e-06
2.77818e-06
2.77797e-06
2.77658e-06
2.77813e-06
2.83024e-06
2.83e-06
2.82856e-06
2.83019e-06
2.87975e-06
2.87948e-06
2.87797e-06
2.87969e-06
2.92651e-06
2.9262e-06
2.92464e-06
2.92644e-06
2.97031e-06
2.96996e-06
2.96835e-06
2.97024e-06
3.01094e-06
3.01054e-06
3.00888e-06
3.01086e-06
3.04816e-06
3.04773e-06
3.04601e-06
3.04808e-06
3.08174e-06
3.08128e-06
3.07951e-06
3.08167e-06
3.11142e-06
3.11094e-06
3.10912e-06
3.11136e-06
3.13696e-06
3.13645e-06
3.13459e-06
3.13691e-06
3.15808e-06
3.15755e-06
3.15565e-06
3.15804e-06
3.17449e-06
3.17395e-06
3.17201e-06
3.17446e-06
3.18592e-06
3.18537e-06
3.18339e-06
3.1859e-06
3.19206e-06
3.1915e-06
3.18949e-06
3.19204e-06
3.19259e-06
3.19205e-06
3.19001e-06
3.19259e-06
3.18722e-06
3.18671e-06
3.18464e-06
3.18725e-06
3.17563e-06
3.17517e-06
3.17306e-06
3.17571e-06
3.15754e-06
3.15711e-06
3.15498e-06
3.15766e-06
3.13264e-06
3.13224e-06
3.13009e-06
3.1328e-06
3.10065e-06
3.10027e-06
3.09811e-06
3.10084e-06
3.06128e-06
3.06091e-06
3.05876e-06
3.06149e-06
3.01426e-06
3.01389e-06
3.01176e-06
3.01449e-06
2.95931e-06
2.95895e-06
2.95684e-06
2.95954e-06
2.89611e-06
2.89577e-06
2.89369e-06
2.89634e-06
2.82428e-06
2.82399e-06
2.82193e-06
2.8245e-06
2.74328e-06
2.74304e-06
2.74099e-06
2.74347e-06
2.65231e-06
2.65212e-06
2.65002e-06
2.65244e-06
2.55084e-06
2.55068e-06
2.54856e-06
2.55092e-06
2.43944e-06
2.43929e-06
2.43715e-06
2.43945e-06
2.31872e-06
2.31858e-06
2.3164e-06
2.31867e-06
2.18954e-06
2.1894e-06
2.18717e-06
2.1894e-06
2.05329e-06
2.05315e-06
2.05086e-06
2.05305e-06
1.91161e-06
1.91147e-06
1.90913e-06
1.91126e-06
1.76638e-06
1.76624e-06
1.76386e-06
1.76592e-06
1.62096e-06
1.62084e-06
1.61848e-06
1.6204e-06
1.47837e-06
1.47828e-06
1.47598e-06
1.47772e-06
1.34117e-06
1.34111e-06
1.3389e-06
1.34044e-06
1.21161e-06
1.21157e-06
1.20946e-06
1.21079e-06
1.09158e-06
1.09156e-06
1.08957e-06
1.09069e-06
9.82677e-07
9.82671e-07
9.80807e-07
9.81732e-07
8.8612e-07
8.86123e-07
8.84381e-07
8.85139e-07
8.02746e-07
8.02759e-07
8.01134e-07
8.01753e-07
7.33049e-07
7.3307e-07
7.31553e-07
7.32064e-07
6.77241e-07
6.77269e-07
6.75847e-07
6.76275e-07
6.35362e-07
6.35394e-07
6.34049e-07
6.34419e-07
6.07385e-07
6.07419e-07
6.06127e-07
6.06463e-07
5.93292e-07
5.93328e-07
5.92063e-07
5.92382e-07
)
;

boundaryField
{
    inlet
    {
        type            cyclic;
    }
    outlet
    {
        type            cyclic;
    }
    fixedWalls-bottom
    {
        type            kqRWallFunction;
        value           nonuniform List<scalar> 4(6.81448e-13 6.80863e-13 6.80513e-13 6.80933e-13);
    }
    fixedWalls-top
    {
        type            symmetry;
    }
    frontAndBack
    {
        type            empty;
    }
}


// ************************************************************************* //
