/*--------------------------------*- C++ -*----------------------------------*\
  =========                 |
  \\      /  F ield         | OpenFOAM: The Open Source CFD Toolbox
   \\    /   O peration     | Website:  https://openfoam.org
    \\  /    A nd           | Version:  10
     \\/     M anipulation  |
\*---------------------------------------------------------------------------*/
FoamFile
{
    format      ascii;
    class       volScalarField;
    location    "5000";
    object      omega;
}
// * * * * * * * * * * * * * * * * * * * * * * * * * * * * * * * * * * * * * //

dimensions      [0 0 -1 0 0 0 0];

internalField   nonuniform List<scalar> 
400
(
268488
268488
268488
268488
45929.4
45929.3
45929.3
45929.3
15450.1
15450.1
15450.1
15450.1
7257.04
7257.04
7257.04
7257.03
4104.26
4104.26
4104.26
4104.25
2603.36
2603.37
2603.37
2603.35
1783.17
1783.18
1783.18
1783.16
1289.88
1289.89
1289.88
1289.87
971.497
971.509
971.506
971.486
754.415
754.427
754.423
754.401
599.563
599.577
599.573
599.549
484.704
484.723
484.719
484.692
396.496
396.521
396.517
396.489
326.629
326.663
326.658
326.63
269.812
269.856
269.851
269.823
222.637
222.692
222.688
222.661
182.904
182.971
182.967
182.941
149.185
149.262
149.258
149.234
120.534
120.619
120.617
120.594
96.2941
96.3856
96.3834
96.3616
75.9657
76.0596
76.058
76.0376
59.1235
59.2161
59.2153
59.1963
45.3715
45.4598
45.4597
45.442
34.3235
34.4052
34.4059
34.3893
25.6001
25.6733
25.6738
25.6592
18.835
18.898
18.8988
18.8863
13.6848
13.7367
13.7382
13.7278
9.83753
9.87832
9.88086
9.87223
7.01331
7.04426
7.04789
7.04066
4.96283
4.98572
4.9901
4.98381
3.48793
3.50452
3.50904
3.50353
2.44009
2.45196
2.45616
2.45144
1.70443
1.7129
1.71651
1.71261
1.19334
1.19942
1.20233
1.19927
0.841253
0.845689
0.84791
0.845648
0.600815
0.604142
0.605682
0.604141
0.438641
0.44122
0.44214
0.441199
0.330612
0.332671
0.333064
0.332576
0.25958
0.261262
0.26123
0.26106
0.213518
0.214841
0.214679
0.214613
0.184144
0.185189
0.184973
0.184948
0.165816
0.166656
0.166433
0.166407
0.154742
0.155437
0.155188
0.155196
0.148399
0.148997
0.148756
0.14876
0.14513
0.145669
0.14545
0.145437
0.143858
0.144364
0.144154
0.144147
0.14389
0.144382
0.144185
0.144183
0.144783
0.145275
0.145094
0.145101
0.146262
0.146759
0.146602
0.146619
0.148154
0.148658
0.148531
0.148566
0.150356
0.150861
0.150775
0.150836
0.152807
0.153302
0.153268
0.15337
0.155474
0.155936
0.155969
0.156135
0.158338
0.158737
0.158854
0.159118
0.161395
0.161743
0.161926
0.162305
0.164643
0.164938
0.165188
0.165697
0.168087
0.168329
0.168646
0.169298
0.171732
0.171928
0.172306
0.173112
0.175584
0.175746
0.176172
0.177147
0.179647
0.179789
0.180251
0.181405
0.183924
0.18405
0.184545
0.185891
0.188412
0.188526
0.18905
0.190603
0.193105
0.193207
0.193759
0.195532
0.197986
0.198078
0.198655
0.200664
0.203031
0.203112
0.20371
0.205971
0.2082
0.208271
0.208886
0.211413
0.213438
0.213502
0.214129
0.216934
0.218675
0.218736
0.219369
0.222462
0.223821
0.223888
0.224523
0.227911
0.228775
0.228871
0.229502
0.233188
0.233429
0.233604
0.23423
0.238212
0.237688
0.238056
0.238671
0.242946
0.241827
0.242228
0.242894
0.247454
0.245983
0.246423
0.247164
0.252
0.250764
0.251276
0.252109
0.2572
0.2574
0.258031
0.258973
0.264265
0.268107
0.268881
0.270009
0.275369
0.286431
0.28727
0.288815
0.29389
0.317977
0.318481
0.321064
0.325052
0.368596
0.369299
0.373866
0.375209
0.441538
0.442357
0.450217
0.447202
0.523154
0.524528
0.535289
0.528473
0.681605
0.685382
0.699873
0.687779
1.06666
1.07196
1.09248
1.07285
1.56765
1.57464
1.60342
1.57485
2.20312
2.21193
2.24964
2.21148
2.99177
3.00316
3.04819
2.99923
3.94301
3.95717
4.00895
3.95461
5.06169
5.06964
5.12903
5.06601
6.31367
6.32264
6.38817
6.32133
7.66553
7.6759
7.74665
7.67841
9.05816
9.06931
9.14501
9.07705
10.4145
10.4254
10.5057
10.4385
11.6478
11.658
11.7417
11.6746
12.6801
12.6899
12.7751
12.7063
13.4603
13.4702
13.555
13.4825
13.9735
13.9844
14.068
13.9906
14.2332
14.2469
14.3283
14.245
14.2466
14.2637
14.3427
14.2545
14.066
14.0861
14.1625
14.0722
)
;

boundaryField
{
    inlet
    {
        type            cyclic;
    }
    outlet
    {
        type            cyclic;
    }
    fixedWalls-bottom
    {
        beta1           0.075;
        blended         0;
        type            omegaWallFunction;
        value           uniform 268488;
    }
    fixedWalls-top
    {
        type            symmetry;
    }
    frontAndBack
    {
        type            empty;
    }
}


// ************************************************************************* //
