/*--------------------------------*- C++ -*----------------------------------*\
  =========                 |
  \\      /  F ield         | OpenFOAM: The Open Source CFD Toolbox
   \\    /   O peration     | Website:  https://openfoam.org
    \\  /    A nd           | Version:  10
     \\/     M anipulation  |
\*---------------------------------------------------------------------------*/
FoamFile
{
    format      ascii;
    class       volVectorField;
    location    "5000";
    object      U;
}
// * * * * * * * * * * * * * * * * * * * * * * * * * * * * * * * * * * * * * //

dimensions      [0 1 -1 0 0 0 0];

internalField   nonuniform List<vector> 
400
(
(0.00692429 5.12774e-15 0)
(0.00692429 -4.88488e-15 0)
(0.00692429 1.5439e-15 0)
(0.00692429 4.90283e-15 0)
(0.0208062 -2.29722e-14 0)
(0.0208062 -3.48195e-14 0)
(0.0208062 2.77395e-14 0)
(0.0208062 3.4833e-14 0)
(0.0348177 -6.91316e-14 0)
(0.0348177 -8.40614e-14 0)
(0.0348177 7.67535e-14 0)
(0.0348177 8.40789e-14 0)
(0.0489588 -1.42401e-13 0)
(0.0489588 -1.43052e-13 0)
(0.0489588 1.51229e-13 0)
(0.0489588 1.43066e-13 0)
(0.0632292 -2.40329e-13 0)
(0.0632292 -2.01189e-13 0)
(0.0632292 2.49303e-13 0)
(0.0632292 2.01199e-13 0)
(0.0776289 -3.60518e-13 0)
(0.0776289 -2.47381e-13 0)
(0.0776289 3.69737e-13 0)
(0.0776289 2.47396e-13 0)
(0.0921576 -5.02114e-13 0)
(0.0921576 -2.69855e-13 0)
(0.0921576 5.11622e-13 0)
(0.0921576 2.69866e-13 0)
(0.106815 -6.63843e-13 0)
(0.106815 -2.56087e-13 0)
(0.106815 6.73528e-13 0)
(0.106815 2.56104e-13 0)
(0.121601 -8.44146e-13 0)
(0.121601 -1.92543e-13 0)
(0.121601 8.54043e-13 0)
(0.121601 1.92564e-13 0)
(0.136514 -1.0413e-12 0)
(0.136514 -6.48667e-14 0)
(0.136514 1.0513e-12 0)
(0.136514 6.49003e-14 0)
(0.151555 -1.25328e-12 0)
(0.151555 1.42283e-13 0)
(0.151555 1.26345e-12 0)
(0.151555 -1.42242e-13 0)
(0.166723 -1.47784e-12 0)
(0.166723 4.44987e-13 0)
(0.166723 1.48808e-12 0)
(0.166723 -4.4493e-13 0)
(0.182017 -1.71236e-12 0)
(0.182017 8.60263e-13 0)
(0.182017 1.72271e-12 0)
(0.182017 -8.60191e-13 0)
(0.197437 -1.954e-12 0)
(0.197437 1.40582e-12 0)
(0.197437 1.96437e-12 0)
(0.197437 -1.40573e-12 0)
(0.212981 -2.19949e-12 0)
(0.212981 2.10018e-12 0)
(0.212981 2.20995e-12 0)
(0.212981 -2.10006e-12 0)
(0.228649 -2.4453e-12 0)
(0.228649 2.96225e-12 0)
(0.228649 2.45576e-12 0)
(0.228649 -2.96211e-12 0)
(0.244439 -2.68739e-12 0)
(0.244439 4.0113e-12 0)
(0.244439 2.69788e-12 0)
(0.244439 -4.01113e-12 0)
(0.260352 -2.92147e-12 0)
(0.260352 5.26625e-12 0)
(0.260352 2.93191e-12 0)
(0.260352 -5.26606e-12 0)
(0.276385 -3.14272e-12 0)
(0.276385 6.74501e-12 0)
(0.276385 3.15319e-12 0)
(0.276385 -6.74478e-12 0)
(0.292537 -3.34632e-12 0)
(0.292537 8.46266e-12 0)
(0.292537 3.35672e-12 0)
(0.292537 -8.4624e-12 0)
(0.308807 -3.52727e-12 0)
(0.308807 1.04288e-11 0)
(0.308807 3.53764e-12 0)
(0.308807 -1.04285e-11 0)
(0.325194 -3.68133e-12 0)
(0.325194 1.26424e-11 0)
(0.325194 3.6916e-12 0)
(0.325194 -1.2642e-11 0)
(0.341696 -3.80544e-12 0)
(0.341696 1.50837e-11 0)
(0.341696 3.81567e-12 0)
(0.341696 -1.50833e-11 0)
(0.35831 -3.90034e-12 0)
(0.35831 1.77039e-11 0)
(0.35831 3.91046e-12 0)
(0.35831 -1.77035e-11 0)
(0.375037 -3.97531e-12 0)
(0.375037 2.04019e-11 0)
(0.375037 3.98536e-12 0)
(0.375037 -2.04014e-11 0)
(0.391872 -4.06163e-12 0)
(0.391872 2.29315e-11 0)
(0.391872 4.07154e-12 0)
(0.391872 -2.2931e-11 0)
(0.408816 -4.23377e-12 0)
(0.408816 2.46924e-11 0)
(0.408816 4.2436e-12 0)
(0.408816 -2.46918e-11 0)
(0.425864 -4.596e-12 0)
(0.425864 2.46662e-11 0)
(0.425864 4.60569e-12 0)
(0.425864 -2.46656e-11 0)
(0.443016 -5.01282e-12 0)
(0.443016 2.36576e-11 0)
(0.443016 5.0224e-12 0)
(0.443016 -2.36569e-11 0)
(0.460268 -5.51517e-12 0)
(0.460268 2.12114e-11 0)
(0.460268 5.52458e-12 0)
(0.460268 -2.12107e-11 0)
(0.477617 -5.90131e-12 0)
(0.477617 1.87652e-11 0)
(0.477617 5.91061e-12 0)
(0.477617 -1.87645e-11 0)
(0.495062 -6.18278e-12 0)
(0.495062 1.63288e-11 0)
(0.495062 6.19191e-12 0)
(0.495062 -1.6328e-11 0)
(0.5126 -6.38331e-12 0)
(0.5126 1.38405e-11 0)
(0.5126 6.39231e-12 0)
(0.5126 -1.38397e-11 0)
(0.530226 -6.51969e-12 0)
(0.530226 1.13192e-11 0)
(0.530226 6.52851e-12 0)
(0.530226 -1.13184e-11 0)
(0.547939 -6.60617e-12 0)
(0.547939 8.82138e-12 0)
(0.547939 6.61484e-12 0)
(0.547939 -8.82045e-12 0)
(0.565734 -6.65924e-12 0)
(0.565734 6.41221e-12 0)
(0.565734 6.66773e-12 0)
(0.565734 -6.41124e-12 0)
(0.583609 -6.69387e-12 0)
(0.583609 4.14806e-12 0)
(0.583609 6.70221e-12 0)
(0.583609 -4.14704e-12 0)
(0.601558 -6.72405e-12 0)
(0.601558 2.07956e-12 0)
(0.601558 6.7322e-12 0)
(0.601558 -2.07849e-12 0)
(0.619579 -6.76028e-12 0)
(0.619579 2.39571e-13 0)
(0.619579 6.76827e-12 0)
(0.619579 -2.38443e-13 0)
(0.637668 -6.81283e-12 0)
(0.637668 -1.34852e-12 0)
(0.637668 6.82062e-12 0)
(0.637668 1.3497e-12 0)
(0.655819 -6.88936e-12 0)
(0.655819 -2.66947e-12 0)
(0.655819 6.89698e-12 0)
(0.655819 2.67069e-12 0)
(0.674028 -6.99713e-12 0)
(0.674028 -3.71018e-12 0)
(0.674028 7.00455e-12 0)
(0.674028 3.71145e-12 0)
(0.692291 -7.14042e-12 0)
(0.692291 -4.46203e-12 0)
(0.692291 7.14767e-12 0)
(0.692291 4.46335e-12 0)
(0.710602 -7.32345e-12 0)
(0.710602 -4.91581e-12 0)
(0.710602 7.33049e-12 0)
(0.710602 4.91718e-12 0)
(0.728957 -7.54721e-12 0)
(0.728957 -5.06604e-12 0)
(0.728957 7.55407e-12 0)
(0.728957 5.06745e-12 0)
(0.74735 -7.81205e-12 0)
(0.74735 -4.90742e-12 0)
(0.74735 7.81871e-12 0)
(0.74735 4.90887e-12 0)
(0.765775 -8.11494e-12 0)
(0.765775 -4.43892e-12 0)
(0.765775 8.12141e-12 0)
(0.765775 4.44042e-12 0)
(0.784226 -8.45286e-12 0)
(0.784226 -3.66026e-12 0)
(0.784226 8.45913e-12 0)
(0.784226 3.6618e-12 0)
(0.802696 -8.81976e-12 0)
(0.802696 -2.5765e-12 0)
(0.802696 8.82584e-12 0)
(0.802696 2.57809e-12 0)
(0.821181 -9.20948e-12 0)
(0.821181 -1.19576e-12 0)
(0.821181 9.21535e-12 0)
(0.821181 1.19738e-12 0)
(0.839672 -9.61343e-12 0)
(0.839672 4.67381e-13 0)
(0.839672 9.61911e-12 0)
(0.839672 -4.65722e-13 0)
(0.858162 -1.00245e-11 0)
(0.858162 2.39259e-12 0)
(0.858162 1.00299e-11 0)
(0.858162 -2.3909e-12 0)
(0.876644 -1.04345e-11 0)
(0.876644 4.55135e-12 0)
(0.876644 1.04398e-11 0)
(0.876644 -4.54963e-12 0)
(0.895111 -1.0838e-11 0)
(0.895111 6.90687e-12 0)
(0.895111 1.08431e-11 0)
(0.895111 -6.90513e-12 0)
(0.913554 -1.12299e-11 0)
(0.913554 9.41383e-12 0)
(0.913554 1.12348e-11 0)
(0.913554 -9.41206e-12 0)
(0.931965 -1.16092e-11 0)
(0.931965 1.20163e-11 0)
(0.931965 1.16139e-11 0)
(0.931965 -1.20145e-11 0)
(0.950336 -1.19772e-11 0)
(0.950336 1.4651e-11 0)
(0.950336 1.19817e-11 0)
(0.950336 -1.46491e-11 0)
(0.968656 -1.23404e-11 0)
(0.968656 1.72454e-11 0)
(0.968656 1.23447e-11 0)
(0.968656 -1.72436e-11 0)
(0.986918 -1.27093e-11 0)
(0.986918 1.97243e-11 0)
(0.986918 1.27135e-11 0)
(0.986918 -1.97225e-11 0)
(1.00511 -1.31021e-11 0)
(1.00511 2.20071e-11 0)
(1.00511 1.31061e-11 0)
(1.00511 -2.20052e-11 0)
(1.02322 -1.35434e-11 0)
(1.02322 2.40164e-11 0)
(1.02322 1.35472e-11 0)
(1.02322 -2.40145e-11 0)
(1.04125 -1.40668e-11 0)
(1.04125 2.56771e-11 0)
(1.04125 1.40704e-11 0)
(1.04125 -2.56752e-11 0)
(1.05917 -1.47142e-11 0)
(1.05917 2.69228e-11 0)
(1.05917 1.47176e-11 0)
(1.05917 -2.69209e-11 0)
(1.07698 -1.5533e-11 0)
(1.07698 2.7692e-11 0)
(1.07698 1.55362e-11 0)
(1.07698 -2.76901e-11 0)
(1.09466 -1.65692e-11 0)
(1.09466 2.79359e-11 0)
(1.09466 1.65723e-11 0)
(1.09466 -2.79339e-11 0)
(1.11221 -1.78645e-11 0)
(1.11221 2.76184e-11 0)
(1.11221 1.78675e-11 0)
(1.11221 -2.76164e-11 0)
(1.12961 -1.94594e-11 0)
(1.12961 2.67245e-11 0)
(1.12961 1.94621e-11 0)
(1.12961 -2.67224e-11 0)
(1.14685 -2.13751e-11 0)
(1.14685 2.52538e-11 0)
(1.14685 2.13777e-11 0)
(1.14685 -2.52517e-11 0)
(1.1639 -2.36786e-11 0)
(1.1639 2.32272e-11 0)
(1.1639 2.36809e-11 0)
(1.1639 -2.32251e-11 0)
(1.18077 -2.644e-11 0)
(1.18077 2.06775e-11 0)
(1.18077 2.64421e-11 0)
(1.18077 -2.06754e-11 0)
(1.19743 -2.97944e-11 0)
(1.19743 1.76584e-11 0)
(1.19743 2.97963e-11 0)
(1.19743 -1.76562e-11 0)
(1.21387 -3.3919e-11 0)
(1.21387 1.42429e-11 0)
(1.21387 3.39207e-11 0)
(1.21387 -1.42407e-11 0)
(1.23008 -3.90384e-11 0)
(1.23008 1.05489e-11 0)
(1.23008 3.90399e-11 0)
(1.23008 -1.05467e-11 0)
(1.24602 -4.54153e-11 0)
(1.24602 6.75119e-12 0)
(1.24602 4.54166e-11 0)
(1.24602 -6.74894e-12 0)
(1.2617 -5.33423e-11 0)
(1.2617 3.11764e-12 0)
(1.2617 5.33435e-11 0)
(1.2617 -3.11538e-12 0)
(1.27709 -6.31168e-11 0)
(1.27709 3.38645e-14 0)
(1.27709 6.31178e-11 0)
(1.27709 -3.16284e-14 0)
(1.29216 -7.50323e-11 0)
(1.29216 -1.96598e-12 0)
(1.29216 7.50332e-11 0)
(1.29216 1.9682e-12 0)
(1.30691 -8.93368e-11 0)
(1.30691 -2.18695e-12 0)
(1.30691 8.93375e-11 0)
(1.30691 2.18914e-12 0)
(1.32132 -1.06116e-10 0)
(1.32132 2.12336e-13 0)
(1.32132 1.06117e-10 0)
(1.32132 -2.10191e-13 0)
(1.33535 -1.25156e-10 0)
(1.33535 6.1747e-12 0)
(1.33535 1.25156e-10 0)
(1.33535 -6.1726e-12 0)
(1.349 -1.46129e-10 0)
(1.349 1.68726e-11 0)
(1.349 1.4613e-10 0)
(1.349 -1.68705e-11 0)
(1.36224 -1.68415e-10 0)
(1.36224 3.34636e-11 0)
(1.36224 1.68416e-10 0)
(1.36224 -3.34616e-11 0)
(1.37504 -1.91328e-10 0)
(1.37504 5.73648e-11 0)
(1.37504 1.91329e-10 0)
(1.37504 -5.73629e-11 0)
(1.38738 -2.13745e-10 0)
(1.38738 9.11785e-11 0)
(1.38738 2.13745e-10 0)
(1.38738 -9.11767e-11 0)
(1.39924 -2.33851e-10 0)
(1.39924 1.40421e-10 0)
(1.39924 2.33851e-10 0)
(1.39924 -1.4042e-10 0)
(1.41059 -2.49205e-10 0)
(1.41059 2.08258e-10 0)
(1.41059 2.49205e-10 0)
(1.41059 -2.08257e-10 0)
(1.42141 -2.59645e-10 0)
(1.42141 2.42429e-10 0)
(1.42141 2.59645e-10 0)
(1.42141 -2.42428e-10 0)
(1.43166 -2.60388e-10 0)
(1.43166 2.57687e-10 0)
(1.43166 2.60388e-10 0)
(1.43166 -2.57686e-10 0)
(1.44133 -2.53615e-10 0)
(1.44133 2.19659e-10 0)
(1.44133 2.53615e-10 0)
(1.44133 -2.19658e-10 0)
(1.45038 -2.38239e-10 0)
(1.45038 1.62668e-10 0)
(1.45038 2.38238e-10 0)
(1.45038 -1.62667e-10 0)
(1.45877 -2.16425e-10 0)
(1.45877 1.08143e-10 0)
(1.45877 2.16425e-10 0)
(1.45877 -1.08142e-10 0)
(1.46649 -1.90248e-10 0)
(1.46649 6.21758e-11 0)
(1.46649 1.90247e-10 0)
(1.46649 -6.2175e-11 0)
(1.4735 -1.61899e-10 0)
(1.4735 2.62023e-11 0)
(1.4735 1.61899e-10 0)
(1.4735 -2.62016e-11 0)
(1.47975 -1.33346e-10 0)
(1.47975 3.2338e-13 0)
(1.47975 1.33346e-10 0)
(1.47975 -3.22835e-13 0)
(1.48523 -1.06125e-10 0)
(1.48523 -1.61324e-11 0)
(1.48523 1.06125e-10 0)
(1.48523 1.61329e-11 0)
(1.48989 -8.12519e-11 0)
(1.48989 -2.43799e-11 0)
(1.48989 8.12518e-11 0)
(1.48989 2.43802e-11 0)
(1.4937 -5.91969e-11 0)
(1.4937 -2.5891e-11 0)
(1.4937 5.91968e-11 0)
(1.4937 2.58912e-11 0)
(1.49662 -3.99286e-11 0)
(1.49662 -2.21959e-11 0)
(1.49662 3.99285e-11 0)
(1.49662 2.21961e-11 0)
(1.4986 -2.29743e-11 0)
(1.4986 -1.47963e-11 0)
(1.4986 2.29743e-11 0)
(1.4986 1.47963e-11 0)
(1.49961 -7.52106e-12 0)
(1.49961 -5.15826e-12 0)
(1.49961 7.52107e-12 0)
(1.49961 5.15829e-12 0)
)
;

boundaryField
{
    inlet
    {
        type            cyclic;
    }
    outlet
    {
        type            cyclic;
    }
    fixedWalls-bottom
    {
        type            noSlip;
    }
    fixedWalls-top
    {
        type            symmetry;
    }
    frontAndBack
    {
        type            empty;
    }
}


// ************************************************************************* //
