/*--------------------------------*- C++ -*----------------------------------*\
  =========                 |
  \\      /  F ield         | OpenFOAM: The Open Source CFD Toolbox
   \\    /   O peration     | Website:  https://openfoam.org
    \\  /    A nd           | Version:  10
     \\/     M anipulation  |
\*---------------------------------------------------------------------------*/
FoamFile
{
    format      ascii;
    class       volScalarField;
    location    "167";
    object      k;
}
// * * * * * * * * * * * * * * * * * * * * * * * * * * * * * * * * * * * * * //

dimensions      [0 2 -2 0 0 0 0];

internalField   nonuniform List<scalar> 
200
(
2.22045e-16
2.22045e-16
2.22045e-16
2.22045e-16
2.22045e-16
2.22045e-16
2.22045e-16
2.22045e-16
2.22045e-16
2.22045e-16
2.22045e-16
2.22045e-16
6.51282e-16
6.51582e-16
6.51101e-16
6.51026e-16
1.65313e-15
1.65392e-15
1.65266e-15
1.65247e-15
3.4557e-15
3.45738e-15
3.4547e-15
3.45431e-15
6.3554e-15
6.35854e-15
6.35347e-15
6.35278e-15
1.0684e-14
1.06894e-14
1.06805e-14
1.06795e-14
1.6805e-14
1.68137e-14
1.67993e-14
1.67978e-14
2.5106e-14
2.51194e-14
2.5097e-14
2.50951e-14
3.59863e-14
3.60064e-14
3.59731e-14
3.59709e-14
4.98446e-14
4.98745e-14
4.98264e-14
4.98245e-14
6.70677e-14
6.71111e-14
6.70437e-14
6.7043e-14
8.80174e-14
8.80799e-14
8.79876e-14
8.79897e-14
1.13019e-13
1.13107e-13
1.12978e-13
1.12986e-13
1.4235e-13
1.42466e-13
1.42287e-13
1.42309e-13
1.76228e-13
1.76369e-13
1.76121e-13
1.76179e-13
2.14791e-13
2.1495e-13
2.14605e-13
2.14733e-13
2.5809e-13
2.58257e-13
2.57775e-13
2.58021e-13
3.06081e-13
3.06241e-13
3.05564e-13
3.05998e-13
3.58615e-13
3.58744e-13
3.57791e-13
3.58515e-13
4.1543e-13
4.15496e-13
4.14158e-13
4.15316e-13
4.76154e-13
4.76111e-13
4.74244e-13
4.76047e-13
5.40229e-13
5.39994e-13
5.3752e-13
5.40262e-13
6.07037e-13
6.06519e-13
6.03359e-13
6.0732e-13
6.75878e-13
6.74936e-13
6.71027e-13
6.76378e-13
7.45996e-13
7.44381e-13
7.39699e-13
7.46506e-13
8.16603e-13
8.13876e-13
8.08487e-13
8.16766e-13
8.87234e-13
8.82254e-13
8.76323e-13
8.86129e-13
9.55575e-13
9.48644e-13
9.42169e-13
9.53529e-13
1.02074e-12
1.01185e-12
1.005e-12
1.01787e-12
1.08172e-12
1.07078e-12
1.06381e-12
1.07807e-12
1.13754e-12
1.12444e-12
1.11764e-12
1.1331e-12
1.1873e-12
1.17199e-12
1.1656e-12
1.18203e-12
1.23018e-12
1.21276e-12
1.20697e-12
1.22405e-12
1.26546e-12
1.24617e-12
1.24119e-12
1.25835e-12
1.29252e-12
1.27184e-12
1.26789e-12
1.28401e-12
1.31074e-12
1.28958e-12
1.28692e-12
1.29982e-12
1.32011e-12
1.29928e-12
1.29833e-12
1.30376e-12
1.31923e-12
1.30132e-12
1.30234e-12
1.30196e-12
1.30618e-12
1.29587e-12
1.29934e-12
1.29402e-12
1.291e-12
1.28294e-12
1.28829e-12
1.28003e-12
1.27127e-12
1.26428e-12
1.27001e-12
1.26061e-12
1.24696e-12
1.24143e-12
1.24584e-12
1.23688e-12
1.21936e-12
1.21617e-12
1.21748e-12
1.21046e-12
1.19142e-12
1.19086e-12
1.18798e-12
1.18334e-12
1.16478e-12
1.16886e-12
1.1588e-12
1.15817e-12
1.13929e-12
1.15543e-12
1.12949e-12
1.13845e-12
1.11705e-12
1.13842e-12
1.10499e-12
1.11685e-12
1.0989e-12
1.12377e-12
1.08692e-12
1.09743e-12
)
;

boundaryField
{
    inlet
    {
        type            cyclic;
    }
    outlet
    {
        type            cyclic;
    }
    fixedWalls-bottom
    {
        type            kqRWallFunction;
        value           uniform 2.22045e-16;
    }
    fixedWalls-top
    {
        type            symmetry;
    }
    frontAndBack
    {
        type            empty;
    }
}


// ************************************************************************* //
