/*--------------------------------*- C++ -*----------------------------------*\
  =========                 |
  \\      /  F ield         | OpenFOAM: The Open Source CFD Toolbox
   \\    /   O peration     | Website:  https://openfoam.org
    \\  /    A nd           | Version:  10
     \\/     M anipulation  |
\*---------------------------------------------------------------------------*/
FoamFile
{
    format      ascii;
    class       volScalarField;
    location    "167";
    object      nut;
}
// * * * * * * * * * * * * * * * * * * * * * * * * * * * * * * * * * * * * * //

dimensions      [0 2 -1 0 0 0 0];

internalField   nonuniform List<scalar> 
200
(
4.42145e-21
4.42145e-21
4.42145e-21
4.42145e-21
2.71957e-20
2.71957e-20
2.71957e-20
2.71957e-20
8.36055e-20
8.36056e-20
8.36055e-20
8.36055e-20
5.35202e-19
5.3545e-19
5.35056e-19
5.34994e-19
2.44555e-18
2.44676e-18
2.44495e-18
2.44465e-18
8.14601e-18
8.15038e-18
8.14444e-18
8.14344e-18
2.19875e-17
2.20004e-17
2.19842e-17
2.19816e-17
5.12398e-17
5.1272e-17
5.1233e-17
5.12273e-17
1.0731e-16
1.07381e-16
1.07295e-16
1.07284e-16
2.07304e-16
2.07445e-16
2.0727e-16
2.07252e-16
3.75582e-16
3.7585e-16
3.75519e-16
3.75491e-16
6.45167e-16
6.45657e-16
6.45072e-16
6.45038e-16
1.05908e-15
1.05996e-15
1.05898e-15
1.05896e-15
1.67134e-15
1.67287e-15
1.67135e-15
1.67136e-15
2.5473e-15
2.54992e-15
2.54757e-15
2.54769e-15
3.76319e-15
3.76746e-15
3.76393e-15
3.76446e-15
5.40458e-15
5.41104e-15
5.40589e-15
5.40774e-15
7.56322e-15
7.57251e-15
7.5652e-15
7.57014e-15
1.03333e-14
1.0346e-14
1.03357e-14
1.03468e-14
1.38065e-14
1.3823e-14
1.3808e-14
1.38309e-14
1.80668e-14
1.80871e-14
1.8064e-14
1.81083e-14
2.31858e-14
2.32085e-14
2.31714e-14
2.32526e-14
2.92179e-14
2.92401e-14
2.91783e-14
2.93218e-14
3.61936e-14
3.62083e-14
3.61119e-14
3.63557e-14
4.41241e-14
4.41219e-14
4.39776e-14
4.43674e-14
5.30007e-14
5.29663e-14
5.27597e-14
5.33388e-14
6.27974e-14
6.2704e-14
6.24227e-14
6.32281e-14
7.34749e-14
7.32747e-14
7.2917e-14
7.39758e-14
8.50158e-14
8.45852e-14
8.41618e-14
8.55028e-14
9.72152e-14
9.65552e-14
9.60649e-14
9.77139e-14
1.09979e-13
1.09059e-13
1.08523e-13
1.10497e-13
1.23188e-13
1.2197e-13
1.21415e-13
1.23728e-13
1.36713e-13
1.35173e-13
1.34603e-13
1.37273e-13
1.50412e-13
1.48529e-13
1.47956e-13
1.5099e-13
1.64135e-13
1.6189e-13
1.61346e-13
1.64729e-13
1.77723e-13
1.75072e-13
1.74683e-13
1.78303e-13
1.91004e-13
1.87914e-13
1.87909e-13
1.9147e-13
2.03792e-13
2.00514e-13
2.00817e-13
2.03941e-13
2.1595e-13
2.12574e-13
2.13228e-13
2.15265e-13
2.27071e-13
2.24007e-13
2.25096e-13
2.26242e-13
2.36546e-13
2.3466e-13
2.3629e-13
2.36662e-13
2.45897e-13
2.44305e-13
2.46303e-13
2.46324e-13
2.54449e-13
2.53063e-13
2.54984e-13
2.55048e-13
2.61867e-13
2.60772e-13
2.62715e-13
2.62606e-13
2.68026e-13
2.68135e-13
2.68728e-13
2.69157e-13
2.7335e-13
2.74243e-13
2.73792e-13
2.74785e-13
2.77817e-13
2.79929e-13
2.77712e-13
2.79683e-13
2.80932e-13
2.86125e-13
2.79895e-13
2.84294e-13
2.8267e-13
2.89357e-13
2.81073e-13
2.86291e-13
2.82605e-13
2.90463e-13
2.81243e-13
2.86134e-13
)
;

boundaryField
{
    inlet
    {
        type            cyclic;
    }
    outlet
    {
        type            cyclic;
    }
    fixedWalls-bottom
    {
        type            nutkWallFunction;
        Cmu             0.09;
        kappa           0.41;
        E               9.8;
        value           uniform 0;
    }
    fixedWalls-top
    {
        type            symmetry;
    }
    frontAndBack
    {
        type            empty;
    }
}


// ************************************************************************* //
