/*--------------------------------*- C++ -*----------------------------------*\
  =========                 |
  \\      /  F ield         | OpenFOAM: The Open Source CFD Toolbox
   \\    /   O peration     | Website:  https://openfoam.org
    \\  /    A nd           | Version:  10
     \\/     M anipulation  |
\*---------------------------------------------------------------------------*/
FoamFile
{
    format      ascii;
    class       volScalarField;
    location    "167";
    object      omega;
}
// * * * * * * * * * * * * * * * * * * * * * * * * * * * * * * * * * * * * * //

dimensions      [0 0 -1 0 0 0 0];

internalField   nonuniform List<scalar> 
200
(
50219.8
50219.8
50219.8
50219.8
8164.68
8164.68
8164.68
8164.68
2655.86
2655.86
2655.86
2655.86
1216.89
1216.89
1216.88
1216.89
675.974
675.962
675.95
675.952
424.22
424.198
424.179
424.183
289.046
289.019
289.001
289.005
208.51
208.483
208.47
208.472
156.602
156.58
156.571
156.573
121.107
121.089
121.083
121.085
95.8148
95.8
95.7957
95.7969
77.2585
77.2461
77.2416
77.2427
63.3262
63.3149
63.3094
63.3105
52.6628
52.6518
52.6447
52.6456
44.3682
44.3569
44.3476
44.3483
37.8269
37.8149
37.8029
37.8033
32.6072
32.5943
32.5794
32.579
28.3994
28.3856
28.3674
28.3658
24.9766
24.962
24.9404
24.9373
22.1694
22.1543
22.1296
22.1242
19.8493
19.8342
19.8068
19.7984
17.9175
17.9027
17.8736
17.861
16.2967
16.2828
16.2533
16.2353
14.9261
14.9136
14.8849
14.8604
13.7575
13.7465
13.7197
13.6884
12.7523
12.7428
12.7186
12.6808
11.8794
11.8713
11.8498
11.8066
11.114
11.1072
11.0878
11.041
10.4361
10.4304
10.4124
10.3637
9.82948
9.82489
9.80763
9.75838
9.28122
9.278
9.26076
9.21176
8.781
8.779
8.7618
8.71325
8.32064
8.31848
8.30323
8.25436
7.89365
7.89066
7.87803
7.82852
7.49492
7.49124
7.48063
7.4307
7.12043
7.11806
7.10538
7.05738
6.76699
6.76822
6.74737
6.70609
6.43177
6.43136
6.4084
6.3735
6.11304
6.11214
6.08891
6.05653
5.80979
5.8093
5.78569
5.7547
5.52188
5.52232
5.49893
5.46779
5.25018
5.25137
5.2305
5.19654
4.99617
4.99592
4.98073
4.94265
4.76181
4.76061
4.74218
4.71003
4.54941
4.53567
4.53053
4.49724
4.35858
4.34236
4.33898
4.30643
4.19262
4.17555
4.17267
4.14099
4.05541
4.0382
4.03542
4.00449
3.95178
3.9343
3.93134
3.90111
3.88845
3.8689
3.86468
3.83538
)
;

boundaryField
{
    inlet
    {
        type            cyclic;
    }
    outlet
    {
        type            cyclic;
    }
    fixedWalls-bottom
    {
        beta1           0.075;
        blended         0;
        type            omegaWallFunction;
        value           nonuniform List<scalar> 4(50219.8 50219.8 50219.8 50219.8);
    }
    fixedWalls-top
    {
        type            symmetry;
    }
    frontAndBack
    {
        type            empty;
    }
}


// ************************************************************************* //
