/*--------------------------------*- C++ -*----------------------------------*\
  =========                 |
  \\      /  F ield         | OpenFOAM: The Open Source CFD Toolbox
   \\    /   O peration     | Website:  https://openfoam.org
    \\  /    A nd           | Version:  10
     \\/     M anipulation  |
\*---------------------------------------------------------------------------*/
FoamFile
{
    format      ascii;
    class       volScalarField;
    location    "167";
    object      p;
}
// * * * * * * * * * * * * * * * * * * * * * * * * * * * * * * * * * * * * * //

dimensions      [0 2 -2 0 0 0 0];

internalField   nonuniform List<scalar> 
200
(
1.04757e-10
5.5705e-07
-2.15975e-07
-7.69513e-07
-2.09157e-10
5.55874e-07
-2.15148e-07
-7.68317e-07
-9.23458e-10
5.54453e-07
-2.14348e-07
-7.66895e-07
-1.7967e-09
5.53457e-07
-2.1352e-07
-7.65901e-07
-2.54746e-09
5.52659e-07
-2.12798e-07
-7.65106e-07
-3.35635e-09
5.52259e-07
-2.11986e-07
-7.647e-07
-4.02605e-09
5.51981e-07
-2.11297e-07
-7.64417e-07
-4.74846e-09
5.52089e-07
-2.10547e-07
-7.64511e-07
-5.30787e-09
5.52279e-07
-2.09961e-07
-7.64696e-07
-5.89087e-09
5.52812e-07
-2.09349e-07
-7.65211e-07
-6.27609e-09
5.53351e-07
-2.08939e-07
-7.65746e-07
-6.63895e-09
5.54131e-07
-2.08549e-07
-7.6651e-07
-6.76372e-09
5.54794e-07
-2.08398e-07
-7.67174e-07
-6.81451e-09
5.55526e-07
-2.0832e-07
-7.67894e-07
-6.58672e-09
5.55952e-07
-2.08521e-07
-7.68325e-07
-6.23454e-09
5.56198e-07
-2.08844e-07
-7.68563e-07
-5.5674e-09
5.55866e-07
-2.09482e-07
-7.68243e-07
-4.72916e-09
5.55004e-07
-2.10291e-07
-7.67377e-07
-3.54735e-09
5.53192e-07
-2.1144e-07
-7.65585e-07
-2.16169e-09
5.50402e-07
-2.12797e-07
-7.62797e-07
-4.18058e-10
5.46186e-07
-2.14505e-07
-7.58607e-07
1.549e-09
5.40419e-07
-2.16441e-07
-7.52849e-07
3.87074e-09
5.32637e-07
-2.18722e-07
-7.451e-07
6.4124e-09
5.22631e-07
-2.21231e-07
-7.35109e-07
9.2842e-09
5.09919e-07
-2.2406e-07
-7.22434e-07
1.23579e-08
4.94204e-07
-2.27095e-07
-7.06741e-07
1.57189e-08
4.75009e-07
-2.3041e-07
-6.87589e-07
1.9244e-08
4.51981e-07
-2.33892e-07
-6.64589e-07
2.29999e-08
4.24666e-07
-2.37604e-07
-6.37317e-07
2.68802e-08
3.92682e-07
-2.41437e-07
-6.05367e-07
3.09323e-08
3.5564e-07
-2.45447e-07
-5.6837e-07
3.50684e-08
3.13188e-07
-2.49534e-07
-5.25957e-07
3.93267e-08
2.65054e-07
-2.53758e-07
-4.77865e-07
4.36462e-08
2.10985e-07
-2.58031e-07
-4.23839e-07
4.80598e-08
1.50892e-07
-2.62422e-07
-3.63783e-07
5.25351e-08
8.47151e-08
-2.66856e-07
-2.97652e-07
5.71061e-08
1.26289e-08
-2.71414e-07
-2.25601e-07
6.17644e-08
-6.51188e-08
-2.76047e-07
-1.47897e-07
6.65496e-08
-1.48007e-07
-2.80834e-07
-6.50439e-08
7.14638e-08
-2.35357e-07
-2.85748e-07
2.22676e-08
7.65527e-08
-3.26198e-07
-2.90856e-07
1.13069e-07
8.18068e-08
-4.19287e-07
-2.96145e-07
2.06125e-07
8.72478e-08
-5.13059e-07
-3.01632e-07
2.99854e-07
9.27996e-08
-6.05592e-07
-3.07257e-07
3.92357e-07
9.84142e-08
-6.94648e-07
-3.12951e-07
4.8137e-07
1.04031e-07
-7.77616e-07
-3.18663e-07
5.64301e-07
1.09651e-07
-8.51177e-07
-3.24373e-07
6.37819e-07
1.14903e-07
-9.106e-07
-3.29706e-07
6.972e-07
1.18736e-07
-9.51e-07
-3.33591e-07
7.37563e-07
1.2028e-07
-9.75124e-07
-3.35187e-07
7.61655e-07
)
;

boundaryField
{
    inlet
    {
        type            cyclic;
    }
    outlet
    {
        type            cyclic;
    }
    fixedWalls-bottom
    {
        type            zeroGradient;
    }
    fixedWalls-top
    {
        type            symmetry;
    }
    frontAndBack
    {
        type            empty;
    }
}


// ************************************************************************* //
