/*--------------------------------*- C++ -*----------------------------------*\
  =========                 |
  \\      /  F ield         | OpenFOAM: The Open Source CFD Toolbox
   \\    /   O peration     | Website:  https://openfoam.org
    \\  /    A nd           | Version:  10
     \\/     M anipulation  |
\*---------------------------------------------------------------------------*/
FoamFile
{
    format      ascii;
    class       surfaceScalarField;
    location    "167";
    object      phi;
}
// * * * * * * * * * * * * * * * * * * * * * * * * * * * * * * * * * * * * * //

dimensions      [0 3 -1 0 0 0 0];

internalField   nonuniform List<scalar> 
346
(
0.000255127
-4.59503e-10
0.000255128
-6.04611e-10
0.000255128
2.7933e-10
6.36025e-10
0.000789978
-1.42589e-09
0.000789979
-2.31342e-09
0.000789978
1.16612e-09
2.36635e-09
0.00136555
-2.87639e-09
0.00136555
-4.96889e-09
0.00136555
2.61712e-09
5.07557e-09
0.001984
-5.06196e-09
0.001984
-8.50545e-09
0.001984
4.72904e-09
8.62188e-09
0.00264757
-7.79201e-09
0.00264757
-1.27355e-08
0.00264757
7.4691e-09
1.28929e-08
0.00335858
-1.13448e-08
0.00335858
-1.7541e-08
0.00335858
1.09612e-08
1.77005e-08
0.00411942
-1.55441e-08
0.00411942
-2.26891e-08
0.00411942
1.51798e-08
2.28817e-08
0.00493256
-2.06892e-08
0.00493256
-2.8016e-08
0.00493256
2.02752e-08
2.8209e-08
0.00580053
-2.66229e-08
0.00580054
-3.32597e-08
0.00580053
2.62372e-08
3.34747e-08
0.00672596
-3.36658e-08
0.00672596
-3.82189e-08
0.00672596
3.32377e-08
3.84358e-08
0.0077115
-4.16811e-08
0.00771151
-4.26219e-08
0.0077115
4.12866e-08
4.28553e-08
0.0087599
-5.10097e-08
0.00875991
-4.62538e-08
0.0087599
5.05763e-08
4.64938e-08
0.00987395
-6.15313e-08
0.00987395
-4.88604e-08
0.00987394
6.11362e-08
4.91054e-08
0.0110565
-7.36029e-08
0.0110565
-5.02296e-08
0.0110565
7.31699e-08
5.04869e-08
0.0123104
-8.71104e-08
0.0123104
-5.01542e-08
0.0123103
8.67179e-08
5.04098e-08
0.0136385
-1.02414e-07
0.0136385
-4.84538e-08
0.0136385
1.01983e-07
4.87299e-08
0.0150438
-1.19386e-07
0.0150438
-4.49964e-08
0.0150438
1.19001e-07
4.52614e-08
0.0165293
-1.38375e-07
0.0165293
-3.96543e-08
0.0165293
1.37949e-07
3.99482e-08
0.0180978
-1.59213e-07
0.0180978
-3.23924e-08
0.0180977
1.58837e-07
3.26685e-08
0.0197522
-1.8221e-07
0.0197522
-2.31564e-08
0.0197521
1.81791e-07
2.34694e-08
0.0214953
-2.07132e-07
0.0214953
-1.20163e-08
0.0214953
2.06761e-07
1.23064e-08
0.02333
-2.34216e-07
0.02333
9.94606e-10
0.02333
2.338e-07
-6.61879e-10
0.0252589
-2.63135e-07
0.0252589
1.57003e-08
0.0252589
2.62771e-07
-1.53976e-08
0.0272846
-2.9403e-07
0.0272845
3.1983e-08
0.0272845
2.93621e-07
-3.16365e-08
0.0294093
-3.2646e-07
0.0294093
4.95826e-08
0.0294093
3.26094e-07
-4.92613e-08
0.0316353
-3.60438e-07
0.0316353
6.82855e-08
0.0316353
3.60036e-07
-6.79245e-08
0.0339646
-3.95402e-07
0.0339646
8.77678e-08
0.0339646
3.9504e-07
-8.74351e-08
0.0363987
-4.31223e-07
0.0363987
1.0775e-07
0.0363987
4.30847e-07
-1.07391e-07
0.038939
-4.67231e-07
0.038939
1.27891e-07
0.038939
4.66878e-07
-1.27541e-07
0.0415863
-5.03132e-07
0.0415863
1.47814e-07
0.0415863
5.02794e-07
-1.47459e-07
0.0443411
-5.38164e-07
0.0443411
1.67204e-07
0.0443411
5.3784e-07
-1.66849e-07
0.0472032
-5.71879e-07
0.0472032
1.8562e-07
0.0472031
5.71606e-07
-1.85294e-07
0.0501718
-6.03452e-07
0.0501717
2.02823e-07
0.0501717
6.03164e-07
-2.02473e-07
0.0532453
-6.3227e-07
0.0532453
2.1828e-07
0.0532453
6.3207e-07
-2.17996e-07
0.0564215
-6.57473e-07
0.0564215
2.31881e-07
0.0564215
6.57233e-07
-2.31554e-07
0.0596971
-6.78303e-07
0.0596971
2.43015e-07
0.0596971
6.78184e-07
-2.42796e-07
0.0630676
-6.93886e-07
0.0630676
2.51712e-07
0.0630675
6.93706e-07
-2.51436e-07
0.0665274
-7.0332e-07
0.0665273
2.57327e-07
0.0665273
7.03284e-07
-2.57189e-07
0.0700694
-7.05714e-07
0.0700694
2.60011e-07
0.0700694
7.05589e-07
-2.59795e-07
0.0736852
-7.00023e-07
0.0736852
2.59076e-07
0.0736852
7.00043e-07
-2.59004e-07
0.0773643
-6.85289e-07
0.0773643
2.54712e-07
0.0773643
6.85218e-07
-2.54564e-07
0.0810943
-6.60322e-07
0.0810943
2.46203e-07
0.0810944
6.60375e-07
-2.46183e-07
0.0848609
-6.24034e-07
0.0848609
2.33663e-07
0.0848609
6.24001e-07
-2.33572e-07
0.0886468
-5.75158e-07
0.0886468
2.16279e-07
0.0886468
5.75201e-07
-2.16273e-07
0.0924322
-5.12632e-07
0.0924322
1.93916e-07
0.0924323
5.12632e-07
-1.93879e-07
0.0961943
-4.35607e-07
0.0961943
1.6582e-07
0.0961944
4.35627e-07
-1.65813e-07
0.0999066
-3.43935e-07
0.0999066
1.31736e-07
0.0999067
3.43939e-07
-1.31723e-07
0.103539
-2.3867e-07
0.103539
9.18621e-08
0.103539
2.38654e-07
-9.18406e-08
0.107057
-1.22035e-07
0.107057
4.48786e-08
0.107057
1.22025e-07
-4.48682e-08
0.11042
0.11042
0.110421
)
;

boundaryField
{
    inlet
    {
        type            cyclic;
        value           nonuniform List<scalar> 
50
(
-0.11042
-0.107057
-0.103539
-0.0999067
-0.0961944
-0.0924323
-0.0886468
-0.0848609
-0.0810944
-0.0773643
-0.0736852
-0.0700694
-0.0665273
-0.0630676
-0.0596971
-0.0564215
-0.0532453
-0.0501717
-0.0472031
-0.0443411
-0.0415863
-0.038939
-0.0363987
-0.0339646
-0.0316353
-0.0294093
-0.0272845
-0.0252589
-0.02333
-0.0214953
-0.0197522
-0.0180978
-0.0165293
-0.0150438
-0.0136385
-0.0123103
-0.0110565
-0.00987394
-0.00875989
-0.00771149
-0.00672595
-0.00580053
-0.00493255
-0.00411941
-0.00335857
-0.00264756
-0.00198399
-0.00136554
-0.000789977
-0.000255127
)
;
    }
    outlet
    {
        type            cyclic;
        value           nonuniform List<scalar> 
50
(
0.11042
0.107057
0.103539
0.0999067
0.0961944
0.0924323
0.0886468
0.0848609
0.0810944
0.0773643
0.0736852
0.0700694
0.0665273
0.0630676
0.0596971
0.0564215
0.0532453
0.0501717
0.0472031
0.0443411
0.0415863
0.038939
0.0363987
0.0339646
0.0316353
0.0294093
0.0272845
0.0252589
0.02333
0.0214953
0.0197522
0.0180978
0.0165293
0.0150438
0.0136385
0.0123103
0.0110565
0.00987394
0.00875989
0.00771149
0.00672595
0.00580053
0.00493255
0.00411941
0.00335857
0.00264756
0.00198399
0.00136554
0.000789977
0.000255127
)
;
    }
    fixedWalls-bottom
    {
        type            calculated;
        value           uniform 0;
    }
    fixedWalls-top
    {
        type            symmetry;
        value           uniform 0;
    }
    frontAndBack
    {
        type            empty;
        value           nonuniform List<scalar> 0();
    }
}


// ************************************************************************* //
