/*--------------------------------*- C++ -*----------------------------------*\
  =========                 |
  \\      /  F ield         | OpenFOAM: The Open Source CFD Toolbox
   \\    /   O peration     | Website:  https://openfoam.org
    \\  /    A nd           | Version:  10
     \\/     M anipulation  |
\*---------------------------------------------------------------------------*/
FoamFile
{
    format      ascii;
    class       volSymmTensorField;
    location    "167";
    object      R;
}
// * * * * * * * * * * * * * * * * * * * * * * * * * * * * * * * * * * * * * //

dimensions      [0 2 -2 0 0 0 0];

internalField   nonuniform List<symmTensor> 
200
(
(1.4803e-16 -1.32294e-20 -0 1.4803e-16 -0 1.4803e-16)
(1.4803e-16 -1.32294e-20 -0 1.4803e-16 -0 1.4803e-16)
(1.4803e-16 -1.32295e-20 -0 1.4803e-16 -0 1.4803e-16)
(1.4803e-16 -1.32294e-20 -0 1.4803e-16 -0 1.4803e-16)
(1.4803e-16 -8.06088e-20 -0 1.4803e-16 -0 1.4803e-16)
(1.4803e-16 -8.06089e-20 -0 1.4803e-16 -0 1.4803e-16)
(1.4803e-16 -8.06091e-20 -0 1.4803e-16 -0 1.4803e-16)
(1.4803e-16 -8.06087e-20 -0 1.4803e-16 -0 1.4803e-16)
(1.4803e-16 -2.45391e-19 -0 1.4803e-16 -0 1.4803e-16)
(1.4803e-16 -2.45391e-19 -0 1.4803e-16 -0 1.4803e-16)
(1.4803e-16 -2.45391e-19 -0 1.4803e-16 -0 1.4803e-16)
(1.4803e-16 -2.4539e-19 -0 1.4803e-16 -0 1.4803e-16)
(4.34188e-16 -1.55492e-18 -0 4.34188e-16 -0 4.34188e-16)
(4.34388e-16 -1.55565e-18 -0 4.34388e-16 -0 4.34388e-16)
(4.34068e-16 -1.5545e-18 -0 4.34068e-16 -0 4.34068e-16)
(4.34017e-16 -1.55432e-18 -0 4.34017e-16 -0 4.34017e-16)
(1.10209e-15 -7.03e-18 -0 1.10209e-15 -0 1.10209e-15)
(1.10261e-15 -7.03348e-18 -0 1.10261e-15 -0 1.10261e-15)
(1.10178e-15 -7.02829e-18 -0 1.10178e-15 -0 1.10178e-15)
(1.10165e-15 -7.02741e-18 -0 1.10165e-15 -0 1.10165e-15)
(2.3038e-15 -2.3159e-17 -0 2.3038e-15 -0 2.3038e-15)
(2.30492e-15 -2.31715e-17 -0 2.30492e-15 -0 2.30492e-15)
(2.30313e-15 -2.31546e-17 -0 2.30313e-15 -0 2.30313e-15)
(2.30287e-15 -2.31517e-17 -0 2.30287e-15 -0 2.30287e-15)
(4.23693e-15 -6.17946e-17 -0 4.23693e-15 -0 4.23693e-15)
(4.23903e-15 -6.18308e-17 -0 4.23903e-15 -0 4.23903e-15)
(4.23565e-15 -6.17854e-17 -0 4.23565e-15 -0 4.23565e-15)
(4.23519e-15 -6.17778e-17 -0 4.23519e-15 -0 4.23519e-15)
(7.12266e-15 -1.42289e-16 -0 7.12266e-15 -0 7.12266e-15)
(7.12624e-15 -1.42378e-16 -0 7.12624e-15 -0 7.12624e-15)
(7.12036e-15 -1.4227e-16 -0 7.12036e-15 -0 7.12036e-15)
(7.11964e-15 -1.42254e-16 -0 7.11964e-15 -0 7.11964e-15)
(1.12034e-14 -2.94289e-16 -0 1.12034e-14 -0 1.12034e-14)
(1.12091e-14 -2.94483e-16 -0 1.12091e-14 -0 1.12091e-14)
(1.11995e-14 -2.94247e-16 -0 1.11995e-14 -0 1.11995e-14)
(1.11985e-14 -2.94217e-16 -0 1.11985e-14 -0 1.11985e-14)
(1.67373e-14 -5.61152e-16 -0 1.67373e-14 -0 1.67373e-14)
(1.67463e-14 -5.61534e-16 -0 1.67463e-14 -0 1.67463e-14)
(1.67313e-14 -5.6106e-16 -0 1.67313e-14 -0 1.67313e-14)
(1.67301e-14 -5.6101e-16 -0 1.67301e-14 -0 1.67301e-14)
(2.39909e-14 -1.00294e-15 -0 2.39909e-14 -0 2.39909e-14)
(2.40043e-14 -1.00365e-15 -0 2.40043e-14 -0 2.40043e-14)
(2.3982e-14 -1.00277e-15 -0 2.3982e-14 -0 2.3982e-14)
(2.39806e-14 -1.00269e-15 -0 2.39806e-14 -0 2.39806e-14)
(3.32298e-14 -1.69856e-15 -0 3.32298e-14 -0 3.32298e-14)
(3.32496e-14 -1.69985e-15 -0 3.32496e-14 -0 3.32496e-14)
(3.32176e-14 -1.69831e-15 -0 3.32176e-14 -0 3.32176e-14)
(3.32163e-14 -1.69821e-15 -0 3.32163e-14 -0 3.32163e-14)
(4.47118e-14 -2.74731e-15 -0 4.47118e-14 -0 4.47118e-14)
(4.47407e-14 -2.74958e-15 -0 4.47407e-14 -0 4.47407e-14)
(4.46958e-14 -2.74705e-15 -0 4.46958e-14 -0 4.46958e-14)
(4.46953e-14 -2.74697e-15 -0 4.46953e-14 -0 4.46953e-14)
(5.86783e-14 -4.269e-15 -0 5.86783e-14 -0 5.86783e-14)
(5.87199e-14 -4.27292e-15 -0 5.87199e-14 -0 5.87199e-14)
(5.86584e-14 -4.26902e-15 -0 5.86584e-14 -0 5.86584e-14)
(5.86598e-14 -4.26903e-15 -0 5.86598e-14 -0 5.86598e-14)
(7.53462e-14 -6.40212e-15 -0 7.53462e-14 -0 7.53462e-14)
(7.54044e-14 -6.40869e-15 -0 7.54044e-14 -0 7.54044e-14)
(7.53189e-14 -6.40276e-15 -0 7.53189e-14 -0 7.53189e-14)
(7.53238e-14 -6.40306e-15 -0 7.53238e-14 -0 7.53238e-14)
(9.48999e-14 -9.2995e-15 -0 9.48999e-14 -0 9.48999e-14)
(9.49773e-14 -9.31002e-15 -0 9.49773e-14 -0 9.49773e-14)
(9.48583e-14 -9.30127e-15 -0 9.48583e-14 -0 9.48583e-14)
(9.48726e-14 -9.30258e-15 -0 9.48726e-14 -0 9.48726e-14)
(1.17485e-13 -1.31215e-14 -0 1.17485e-13 -0 1.17485e-13)
(1.17579e-13 -1.31372e-14 -0 1.17579e-13 -0 1.17579e-13)
(1.17414e-13 -1.31247e-14 -0 1.17414e-13 -0 1.17414e-13)
(1.17453e-13 -1.31291e-14 -0 1.17453e-13 -0 1.17453e-13)
(1.43194e-13 -1.80254e-14 -0 1.43194e-13 -0 1.43194e-13)
(1.433e-13 -1.80475e-14 -0 1.433e-13 -0 1.433e-13)
(1.4307e-13 -1.80301e-14 -0 1.4307e-13 -0 1.4307e-13)
(1.43155e-13 -1.80418e-14 -0 1.43155e-13 -0 1.43155e-13)
(1.7206e-13 -2.41539e-14 -0 1.7206e-13 -0 1.7206e-13)
(1.72171e-13 -2.41836e-14 -0 1.72171e-13 -0 1.72171e-13)
(1.7185e-13 -2.41594e-14 -0 1.7185e-13 -0 1.7185e-13)
(1.72014e-13 -2.41855e-14 -0 1.72014e-13 -0 1.72014e-13)
(2.04054e-13 -3.1622e-14 -0 2.04054e-13 -0 2.04054e-13)
(2.0416e-13 -3.166e-14 -0 2.0416e-13 -0 2.0416e-13)
(2.0371e-13 -3.16253e-14 -0 2.03709e-13 -0 2.03709e-13)
(2.03999e-13 -3.16779e-14 -0 2.03999e-13 -0 2.03999e-13)
(2.39077e-13 -4.05047e-14 -0 2.39077e-13 -0 2.39077e-13)
(2.39162e-13 -4.05502e-14 -0 2.39162e-13 -0 2.39162e-13)
(2.38527e-13 -4.04983e-14 -0 2.38527e-13 -0 2.38527e-13)
(2.3901e-13 -4.05975e-14 -0 2.3901e-13 -0 2.3901e-13)
(2.76954e-13 -5.08263e-14 -0 2.76954e-13 -0 2.76954e-13)
(2.76997e-13 -5.08762e-14 -0 2.76997e-13 -0 2.76997e-13)
(2.76105e-13 -5.07948e-14 -0 2.76105e-13 -0 2.76105e-13)
(2.76877e-13 -5.09728e-14 -0 2.76877e-13 -0 2.76877e-13)
(3.17436e-13 -6.25535e-14 -0 3.17436e-13 -0 3.17436e-13)
(3.17407e-13 -6.26009e-14 -0 3.17407e-13 -0 3.17407e-13)
(3.16162e-13 -6.24686e-14 -0 3.16162e-13 -0 3.16162e-13)
(3.17365e-13 -6.27758e-14 -0 3.17365e-13 -0 3.17365e-13)
(3.60153e-13 -7.55825e-14 -0 3.60153e-13 -0 3.60153e-13)
(3.59996e-13 -7.56133e-14 -0 3.59996e-13 -0 3.59996e-13)
(3.58347e-13 -7.54118e-14 -0 3.58347e-13 -0 3.58347e-13)
(3.60174e-13 -7.5921e-14 -0 3.60175e-13 -0 3.60175e-13)
(4.04691e-13 -8.97556e-14 -0 4.04692e-13 -0 4.04691e-13)
(4.04346e-13 -8.97512e-14 -0 4.04346e-13 -0 4.04346e-13)
(4.02239e-13 -8.94576e-14 -0 4.02239e-13 -0 4.02239e-13)
(4.0488e-13 -9.02505e-14 -0 4.0488e-13 -0 4.0488e-13)
(4.50585e-13 -1.04863e-13 -0 4.50586e-13 -0 4.50586e-13)
(4.49958e-13 -1.04795e-13 -0 4.49958e-13 -0 4.49958e-13)
(4.47351e-13 -1.04386e-13 -0 4.47351e-13 -0 4.47351e-13)
(4.50918e-13 -1.05532e-13 -0 4.50919e-13 -0 4.50919e-13)
(4.9733e-13 -1.20654e-13 -0 4.97331e-13 -0 4.97331e-13)
(4.96254e-13 -1.20475e-13 -0 4.96254e-13 -0 4.96254e-13)
(4.93133e-13 -1.19934e-13 -0 4.93133e-13 -0 4.93133e-13)
(4.97671e-13 -1.21482e-13 -0 4.97671e-13 -0 4.97671e-13)
(5.44402e-13 -1.36848e-13 -0 5.44403e-13 -0 5.44402e-13)
(5.42584e-13 -1.36476e-13 -0 5.42584e-13 -0 5.42584e-13)
(5.38992e-13 -1.35809e-13 -0 5.38991e-13 -0 5.38992e-13)
(5.44511e-13 -1.37781e-13 -0 5.44511e-13 -0 5.44511e-13)
(5.91489e-13 -1.53204e-13 -0 5.91489e-13 -0 5.91489e-13)
(5.88169e-13 -1.52428e-13 -0 5.88169e-13 -0 5.88169e-13)
(5.84216e-13 -1.51665e-13 -0 5.84215e-13 -0 5.84215e-13)
(5.90752e-13 -1.54082e-13 -0 5.90753e-13 -0 5.90752e-13)
(6.3705e-13 -1.69146e-13 -0 6.37051e-13 -0 6.3705e-13)
(6.3243e-13 -1.67998e-13 -0 6.32429e-13 -0 6.32429e-13)
(6.28113e-13 -1.67145e-13 -0 6.28113e-13 -0 6.28113e-13)
(6.35686e-13 -1.70015e-13 -0 6.35686e-13 -0 6.35686e-13)
(6.8049e-13 -1.84327e-13 -0 6.8049e-13 -0 6.8049e-13)
(6.74568e-13 -1.82786e-13 -0 6.74567e-13 -0 6.74568e-13)
(6.70003e-13 -1.81887e-13 -0 6.70002e-13 -0 6.70003e-13)
(6.78581e-13 -1.85197e-13 -0 6.78582e-13 -0 6.78582e-13)
(7.21144e-13 -1.98375e-13 -0 7.21145e-13 -0 7.21145e-13)
(7.13852e-13 -1.96414e-13 -0 7.13852e-13 -0 7.13852e-13)
(7.09209e-13 -1.9552e-13 -0 7.09209e-13 -0 7.09209e-13)
(7.18715e-13 -1.99245e-13 -0 7.18716e-13 -0 7.18715e-13)
(7.5836e-13 -2.10923e-13 -0 7.58361e-13 -0 7.58361e-13)
(7.49625e-13 -2.08548e-13 -0 7.49624e-13 -0 7.49625e-13)
(7.45091e-13 -2.07667e-13 -0 7.4509e-13 -0 7.45091e-13)
(7.55401e-13 -2.11788e-13 -0 7.55402e-13 -0 7.55401e-13)
(7.91532e-13 -2.21615e-13 -0 7.91533e-13 -0 7.91532e-13)
(7.81329e-13 -2.18841e-13 -0 7.81329e-13 -0 7.81329e-13)
(7.77068e-13 -2.17997e-13 -0 7.77068e-13 -0 7.77068e-13)
(7.88021e-13 -2.22468e-13 -0 7.88021e-13 -0 7.88021e-13)
(8.20117e-13 -2.30118e-13 -0 8.20118e-13 -0 8.20118e-13)
(8.08506e-13 -2.26972e-13 -0 8.08505e-13 -0 8.08505e-13)
(8.04649e-13 -2.26209e-13 -0 8.04648e-13 -0 8.04649e-13)
(8.16036e-13 -2.30953e-13 -0 8.16037e-13 -0 8.16036e-13)
(8.43642e-13 -2.36126e-13 -0 8.43642e-13 -0 8.43642e-13)
(8.30782e-13 -2.32604e-13 -0 8.30781e-13 -0 8.30781e-13)
(8.27461e-13 -2.32088e-13 -0 8.2746e-13 -0 8.27461e-13)
(8.38902e-13 -2.36898e-13 -0 8.38902e-13 -0 8.38902e-13)
(8.61681e-13 -2.39359e-13 -0 8.61682e-13 -0 8.61681e-13)
(8.47894e-13 -2.35487e-13 -0 8.47894e-13 -0 8.47894e-13)
(8.45262e-13 -2.35481e-13 -0 8.45262e-13 -0 8.45262e-13)
(8.56009e-13 -2.39944e-13 -0 8.56009e-13 -0 8.56009e-13)
(8.73828e-13 -2.39573e-13 -0 8.73828e-13 -0 8.73828e-13)
(8.59718e-13 -2.3572e-13 -0 8.59718e-13 -0 8.59718e-13)
(8.57946e-13 -2.36077e-13 -0 8.57946e-13 -0 8.57946e-13)
(8.66546e-13 -2.39751e-13 -0 8.66547e-13 -0 8.66547e-13)
(8.80076e-13 -2.36639e-13 -0 8.80076e-13 -0 8.80076e-13)
(8.66187e-13 -2.32939e-13 -0 8.66187e-13 -0 8.66187e-13)
(8.65551e-13 -2.33656e-13 -0 8.65551e-13 -0 8.65551e-13)
(8.69175e-13 -2.35891e-13 -0 8.69175e-13 -0 8.69175e-13)
(8.79488e-13 -2.30198e-13 -0 8.79488e-13 -0 8.79488e-13)
(8.67549e-13 -2.27092e-13 -0 8.67549e-13 -0 8.67549e-13)
(8.68225e-13 -2.28197e-13 -0 8.68225e-13 -0 8.68225e-13)
(8.67971e-13 -2.29361e-13 -0 8.67971e-13 -0 8.67971e-13)
(8.70786e-13 -2.19851e-13 -0 8.70786e-13 -0 8.70786e-13)
(8.63911e-13 -2.18098e-13 -0 8.63911e-13 -0 8.63911e-13)
(8.66228e-13 -2.19614e-13 -0 8.66229e-13 -0 8.66228e-13)
(8.62681e-13 -2.19962e-13 -0 8.6268e-13 -0 8.62681e-13)
(8.60669e-13 -2.07213e-13 -0 8.60668e-13 -0 8.60668e-13)
(8.55291e-13 -2.05872e-13 -0 8.55292e-13 -0 8.55291e-13)
(8.58858e-13 -2.07556e-13 -0 8.58859e-13 -0 8.58858e-13)
(8.53356e-13 -2.07576e-13 -0 8.53356e-13 -0 8.53356e-13)
(8.47513e-13 -1.91723e-13 -0 8.47512e-13 -0 8.47512e-13)
(8.42854e-13 -1.90679e-13 -0 8.42855e-13 -0 8.42854e-13)
(8.46672e-13 -1.92127e-13 -0 8.46673e-13 -0 8.46672e-13)
(8.40408e-13 -1.92177e-13 -0 8.40408e-13 -0 8.40408e-13)
(8.31308e-13 -1.73291e-13 -0 8.31306e-13 -0 8.31307e-13)
(8.27621e-13 -1.72567e-13 -0 8.27622e-13 -0 8.27622e-13)
(8.3056e-13 -1.73854e-13 -0 8.30562e-13 -0 8.30561e-13)
(8.24589e-13 -1.73783e-13 -0 8.24588e-13 -0 8.24588e-13)
(8.12908e-13 -1.52083e-13 -0 8.12906e-13 -0 8.12907e-13)
(8.10781e-13 -1.52145e-13 -0 8.10782e-13 -0 8.10782e-13)
(8.11653e-13 -1.52483e-13 -0 8.11655e-13 -0 8.11654e-13)
(8.06976e-13 -1.52728e-13 -0 8.06975e-13 -0 8.06975e-13)
(7.94281e-13 -1.28585e-13 -0 7.94278e-13 -0 7.9428e-13)
(7.93908e-13 -1.29005e-13 -0 7.93909e-13 -0 7.93908e-13)
(7.91983e-13 -1.28794e-13 -0 7.91985e-13 -0 7.91984e-13)
(7.88895e-13 -1.29263e-13 -0 7.88894e-13 -0 7.88895e-13)
(7.76522e-13 -1.02967e-13 -0 7.76519e-13 -0 7.7652e-13)
(7.79239e-13 -1.0375e-13 -0 7.7924e-13 -0 7.79239e-13)
(7.72533e-13 -1.02929e-13 -0 7.72536e-13 -0 7.72535e-13)
(7.72111e-13 -1.03661e-13 -0 7.7211e-13 -0 7.72111e-13)
(7.59532e-13 -7.52929e-14 -0 7.59528e-13 -0 7.5953e-13)
(7.70286e-13 -7.66851e-14 -0 7.70287e-13 -0 7.70287e-13)
(7.52995e-13 -7.50164e-14 -0 7.52998e-13 -0 7.52996e-13)
(7.5897e-13 -7.61964e-14 -0 7.58969e-13 -0 7.5897e-13)
(7.44703e-13 -4.59183e-14 -0 7.44699e-13 -0 7.44701e-13)
(7.58944e-13 -4.70041e-14 -0 7.58946e-13 -0 7.58945e-13)
(7.36661e-13 -4.56589e-14 -0 7.36664e-13 -0 7.36663e-13)
(7.4457e-13 -4.6507e-14 -0 7.44569e-13 -0 7.44569e-13)
(7.326e-13 -1.53889e-14 -0 7.32596e-13 -0 7.32598e-13)
(7.4918e-13 -1.58161e-14 -0 7.49182e-13 -0 7.49181e-13)
(7.24609e-13 -1.53142e-14 -0 7.24613e-13 -0 7.24611e-13)
(7.31622e-13 -1.55805e-14 -0 7.31621e-13 -0 7.31621e-13)
)
;

boundaryField
{
    inlet
    {
        type            cyclic;
    }
    outlet
    {
        type            cyclic;
    }
    fixedWalls-bottom
    {
        type            kqRWallFunction;
        value           uniform (1.4803e-16 -0 -0 1.4803e-16 -0 1.4803e-16);
    }
    fixedWalls-top
    {
        type            symmetry;
    }
    frontAndBack
    {
        type            empty;
    }
}


// ************************************************************************* //
