/*--------------------------------*- C++ -*----------------------------------*\
  =========                 |
  \\      /  F ield         | OpenFOAM: The Open Source CFD Toolbox
   \\    /   O peration     | Website:  https://openfoam.org
    \\  /    A nd           | Version:  10
     \\/     M anipulation  |
\*---------------------------------------------------------------------------*/
FoamFile
{
    format      ascii;
    class       volVectorField;
    location    "167";
    object      U;
}
// * * * * * * * * * * * * * * * * * * * * * * * * * * * * * * * * * * * * * //

dimensions      [0 1 -1 0 0 0 0];

internalField   nonuniform List<vector> 
200
(
(0.0138464 -2.16266e-10 0)
(0.0138464 -8.66178e-11 0)
(0.0138465 5.32375e-11 0)
(0.0138464 1.06964e-10 0)
(0.0416781 -7.79493e-10 0)
(0.0416782 -1.2863e-09 0)
(0.0416783 5.93383e-10 0)
(0.0416781 1.3249e-09 0)
(0.0700346 -2.03286e-09 0)
(0.0700347 -3.4272e-09 0)
(0.0700349 1.75224e-09 0)
(0.0700346 3.50799e-09 0)
(0.0989146 -3.82477e-09 0)
(0.0989147 -6.55234e-09 0)
(0.0989149 3.52775e-09 0)
(0.0989145 6.66616e-09 0)
(0.128316 -6.27558e-09 0)
(0.128316 -1.04839e-08 0)
(0.128316 5.95034e-09 0)
(0.128315 1.06229e-08 0)
(0.158234 -9.40825e-09 0)
(0.158234 -1.50526e-08 0)
(0.158235 9.05738e-09 0)
(0.158234 1.52131e-08 0)
(0.188666 -1.3277e-08 0)
(0.188666 -2.00821e-08 0)
(0.188667 1.29027e-08 0)
(0.188666 2.02593e-08 0)
(0.219606 -1.79359e-08 0)
(0.219606 -2.53742e-08 0)
(0.219606 1.75471e-08 0)
(0.219605 2.55681e-08 0)
(0.251046 -2.34629e-08 0)
(0.251046 -3.07166e-08 0)
(0.251046 2.30623e-08 0)
(0.251045 3.0921e-08 0)
(0.282978 -2.99337e-08 0)
(0.282978 -3.58743e-08 0)
(0.282978 2.95275e-08 0)
(0.282977 3.60907e-08 0)
(0.315392 -3.74462e-08 0)
(0.315392 -4.06118e-08 0)
(0.315392 3.70347e-08 0)
(0.315391 4.08372e-08 0)
(0.348276 -4.60976e-08 0)
(0.348276 -4.46812e-08 0)
(0.348276 4.56847e-08 0)
(0.348275 4.49182e-08 0)
(0.381617 -5.60038e-08 0)
(0.381617 -4.78499e-08 0)
(0.381618 5.55893e-08 0)
(0.381616 4.80927e-08 0)
(0.415401 -6.72785e-08 0)
(0.4154 -4.98794e-08 0)
(0.415401 6.68654e-08 0)
(0.415399 5.01308e-08 0)
(0.449608 -8.00494e-08 0)
(0.449608 -5.05626e-08 0)
(0.449608 7.96362e-08 0)
(0.449607 5.08194e-08 0)
(0.484221 -9.44354e-08 0)
(0.48422 -4.96998e-08 0)
(0.484221 9.40245e-08 0)
(0.484219 4.99657e-08 0)
(0.519216 -1.1056e-07 0)
(0.519216 -4.71382e-08 0)
(0.519216 1.10151e-07 0)
(0.519215 4.74091e-08 0)
(0.554571 -1.28528e-07 0)
(0.55457 -4.27422e-08 0)
(0.55457 1.28123e-07 0)
(0.554569 4.30215e-08 0)
(0.590257 -1.48439e-07 0)
(0.590256 -3.64347e-08 0)
(0.590256 1.48037e-07 0)
(0.590255 3.67201e-08 0)
(0.626244 -1.70359e-07 0)
(0.626244 -2.81657e-08 0)
(0.626244 1.69962e-07 0)
(0.626242 2.84598e-08 0)
(0.662501 -1.94332e-07 0)
(0.6625 -1.7948e-08 0)
(0.6625 1.93937e-07 0)
(0.662499 1.82499e-08 0)
(0.698989 -2.20358e-07 0)
(0.698989 -5.82873e-09 0)
(0.698988 2.19965e-07 0)
(0.698987 6.13959e-09 0)
(0.73567 -2.48398e-07 0)
(0.735669 8.08149e-09 0)
(0.735669 2.48007e-07 0)
(0.735668 -7.7635e-09 0)
(0.772499 -2.78353e-07 0)
(0.772499 2.36397e-08 0)
(0.772498 2.77967e-07 0)
(0.772497 -2.33157e-08 0)
(0.809429 -3.10081e-07 0)
(0.809429 4.06503e-08 0)
(0.809428 3.09693e-07 0)
(0.809427 -4.03163e-08 0)
(0.846408 -3.43363e-07 0)
(0.846407 5.88802e-08 0)
(0.846407 3.42979e-07 0)
(0.846406 -5.85397e-08 0)
(0.883378 -3.77928e-07 0)
(0.883378 7.80533e-08 0)
(0.883377 3.77546e-07 0)
(0.883376 -7.77063e-08 0)
(0.920279 -4.13427e-07 0)
(0.920279 9.78711e-08 0)
(0.920278 4.13059e-07 0)
(0.920277 -9.75258e-08 0)
(0.957043 -4.49464e-07 0)
(0.957042 1.18016e-07 0)
(0.957042 4.491e-07 0)
(0.95704 -1.17662e-07 0)
(0.993596 -4.85552e-07 0)
(0.993596 1.38133e-07 0)
(0.993595 4.85206e-07 0)
(0.993594 -1.3778e-07 0)
(1.02986 -5.21164e-07 0)
(1.02986 1.57867e-07 0)
(1.02986 5.20833e-07 0)
(1.02986 -1.57513e-07 0)
(1.06575 -5.55692e-07 0)
(1.06575 1.76846e-07 0)
(1.06575 5.55393e-07 0)
(1.06575 -1.76505e-07 0)
(1.10118 -5.885e-07 0)
(1.10118 1.9472e-07 0)
(1.10118 5.8822e-07 0)
(1.10118 -1.94382e-07 0)
(1.13604 -6.18866e-07 0)
(1.13604 2.11109e-07 0)
(1.13604 6.1862e-07 0)
(1.13604 -2.1079e-07 0)
(1.17023 -6.46052e-07 0)
(1.17023 2.25681e-07 0)
(1.17022 6.45831e-07 0)
(1.17022 -2.25376e-07 0)
(1.20362 -6.69248e-07 0)
(1.20362 2.38083e-07 0)
(1.20362 6.69066e-07 0)
(1.20362 -2.37808e-07 0)
(1.23611 -6.87637e-07 0)
(1.23611 2.48015e-07 0)
(1.23611 6.87487e-07 0)
(1.23611 -2.47767e-07 0)
(1.26755 -7.00331e-07 0)
(1.26755 2.55176e-07 0)
(1.26755 7.0022e-07 0)
(1.26755 -2.54967e-07 0)
(1.29779 -7.06434e-07 0)
(1.29779 2.59314e-07 0)
(1.29779 7.06352e-07 0)
(1.29779 -2.59137e-07 0)
(1.32669 -7.0498e-07 0)
(1.32669 2.60167e-07 0)
(1.32669 7.04924e-07 0)
(1.32669 -2.60021e-07 0)
(1.35408 -6.94967e-07 0)
(1.35408 2.57484e-07 0)
(1.35408 6.94941e-07 0)
(1.35408 -2.57374e-07 0)
(1.37977 -6.75322e-07 0)
(1.37977 2.51011e-07 0)
(1.37977 6.75311e-07 0)
(1.37977 -2.50925e-07 0)
(1.40358 -6.44896e-07 0)
(1.40358 2.40453e-07 0)
(1.40358 6.44907e-07 0)
(1.40358 -2.404e-07 0)
(1.4253 -6.02508e-07 0)
(1.4253 2.2549e-07 0)
(1.4253 6.02513e-07 0)
(1.4253 -2.25441e-07 0)
(1.4447 -5.46974e-07 0)
(1.4447 2.05625e-07 0)
(1.4447 5.46999e-07 0)
(1.4447 -2.05606e-07 0)
(1.46156 -4.77268e-07 0)
(1.46156 1.80299e-07 0)
(1.46156 4.77278e-07 0)
(1.46157 -1.80278e-07 0)
(1.47562 -3.92675e-07 0)
(1.47562 1.48844e-07 0)
(1.47562 3.92687e-07 0)
(1.47563 -1.48836e-07 0)
(1.48661 -2.93587e-07 0)
(1.48661 1.11871e-07 0)
(1.48661 2.93582e-07 0)
(1.48662 -1.11853e-07 0)
(1.49424 -1.81754e-07 0)
(1.49424 7.059e-08 0)
(1.49424 1.81745e-07 0)
(1.49425 -7.05852e-08 0)
(1.4982 -6.08931e-08 0)
(1.4982 2.22421e-08 0)
(1.4982 6.08874e-08 0)
(1.4982 -2.22241e-08 0)
)
;

boundaryField
{
    inlet
    {
        type            cyclic;
    }
    outlet
    {
        type            cyclic;
    }
    fixedWalls-bottom
    {
        type            noSlip;
    }
    fixedWalls-top
    {
        type            symmetry;
    }
    frontAndBack
    {
        type            empty;
    }
}


// ************************************************************************* //
