/*--------------------------------*- C++ -*----------------------------------*\
  =========                 |
  \\      /  F ield         | OpenFOAM: The Open Source CFD Toolbox
   \\    /   O peration     | Website:  https://openfoam.org
    \\  /    A nd           | Version:  10
     \\/     M anipulation  |
\*---------------------------------------------------------------------------*/
FoamFile
{
    format      ascii;
    class       volScalarField;
    location    "289";
    object      k;
}
// * * * * * * * * * * * * * * * * * * * * * * * * * * * * * * * * * * * * * //

dimensions      [0 2 -2 0 0 0 0];

internalField   nonuniform List<scalar> 
200
(
1.22294e-10
1.22052e-10
1.22007e-10
1.22314e-10
3.69243e-09
3.68513e-09
3.68377e-09
3.69302e-09
2.67059e-08
2.6653e-08
2.66433e-08
2.67102e-08
9.94647e-08
9.92679e-08
9.92319e-08
9.94815e-08
2.63667e-07
2.63145e-07
2.63051e-07
2.63715e-07
5.71627e-07
5.7049e-07
5.70294e-07
5.71742e-07
1.08609e-06
1.08392e-06
1.08357e-06
1.08634e-06
1.87954e-06
1.87576e-06
1.8752e-06
1.88006e-06
3.03225e-06
3.02611e-06
3.02528e-06
3.03327e-06
4.62837e-06
4.61893e-06
4.61779e-06
4.63027e-06
6.74961e-06
6.73578e-06
6.73424e-06
6.75295e-06
9.46648e-06
9.4471e-06
9.44489e-06
9.47201e-06
1.28277e-05
1.28018e-05
1.27982e-05
1.28363e-05
1.68496e-05
1.68164e-05
1.68101e-05
1.68619e-05
2.15069e-05
2.14667e-05
2.14549e-05
2.1523e-05
2.67282e-05
2.66825e-05
2.66608e-05
2.67469e-05
3.23944e-05
3.23463e-05
3.23109e-05
3.24143e-05
3.83468e-05
3.83006e-05
3.82495e-05
3.83666e-05
4.43993e-05
4.43606e-05
4.42939e-05
4.44176e-05
5.03531e-05
5.03299e-05
5.02492e-05
5.03697e-05
5.60572e-05
5.60527e-05
5.59582e-05
5.60832e-05
6.14005e-05
6.14166e-05
6.13055e-05
6.14498e-05
6.62848e-05
6.63099e-05
6.61915e-05
6.63482e-05
7.06235e-05
7.06516e-05
7.05286e-05
7.06907e-05
7.43428e-05
7.43535e-05
7.42377e-05
7.43882e-05
7.72958e-05
7.73086e-05
7.72214e-05
7.73884e-05
7.94829e-05
7.95068e-05
7.94552e-05
7.96338e-05
8.09928e-05
8.1019e-05
8.09563e-05
8.11484e-05
8.18586e-05
8.18794e-05
8.17467e-05
8.19582e-05
8.202e-05
8.20115e-05
8.18493e-05
8.2079e-05
8.14511e-05
8.143e-05
8.12639e-05
8.15082e-05
8.02012e-05
8.01483e-05
8.00034e-05
8.02241e-05
7.8216e-05
7.81537e-05
7.80014e-05
7.82272e-05
7.55087e-05
7.54786e-05
7.52354e-05
7.55128e-05
7.21076e-05
7.20319e-05
7.17468e-05
7.21017e-05
6.80197e-05
6.7859e-05
6.76433e-05
6.8021e-05
6.32285e-05
6.31198e-05
6.2951e-05
6.33286e-05
5.79359e-05
5.78574e-05
5.77112e-05
5.80649e-05
5.21597e-05
5.2127e-05
5.19946e-05
5.22995e-05
4.5993e-05
4.60277e-05
4.59055e-05
4.61434e-05
3.964e-05
3.96858e-05
3.95949e-05
3.97693e-05
3.32903e-05
3.33314e-05
3.32767e-05
3.33916e-05
2.71868e-05
2.72216e-05
2.7193e-05
2.72676e-05
2.15875e-05
2.16175e-05
2.16008e-05
2.16545e-05
1.67111e-05
1.67368e-05
1.67249e-05
1.67666e-05
1.26928e-05
1.27136e-05
1.27023e-05
1.2737e-05
9.57336e-06
9.58847e-06
9.57475e-06
9.60638e-06
7.3211e-06
7.3291e-06
7.31412e-06
7.34358e-06
5.86845e-06
5.86785e-06
5.85674e-06
5.88169e-06
5.14331e-06
5.14849e-06
5.1404e-06
5.16106e-06
)
;

boundaryField
{
    inlet
    {
        type            cyclic;
    }
    outlet
    {
        type            cyclic;
    }
    fixedWalls-bottom
    {
        type            kqRWallFunction;
        value           nonuniform List<scalar> 4(1.22294e-10 1.22052e-10 1.22007e-10 1.22314e-10);
    }
    fixedWalls-top
    {
        type            symmetry;
    }
    frontAndBack
    {
        type            empty;
    }
}


// ************************************************************************* //
