/*--------------------------------*- C++ -*----------------------------------*\
  =========                 |
  \\      /  F ield         | OpenFOAM: The Open Source CFD Toolbox
   \\    /   O peration     | Website:  https://openfoam.org
    \\  /    A nd           | Version:  10
     \\/     M anipulation  |
\*---------------------------------------------------------------------------*/
FoamFile
{
    format      ascii;
    class       volScalarField;
    location    "289";
    object      nut;
}
// * * * * * * * * * * * * * * * * * * * * * * * * * * * * * * * * * * * * * //

dimensions      [0 2 -1 0 0 0 0];

internalField   nonuniform List<scalar> 
200
(
1.51572e-14
1.51273e-14
1.51217e-14
1.51597e-14
2.69832e-12
2.69298e-12
2.69199e-12
2.69875e-12
5.88005e-11
5.86839e-11
5.86624e-11
5.88099e-11
4.72927e-10
4.71989e-10
4.71818e-10
4.73006e-10
2.24673e-09
2.24226e-09
2.24147e-09
2.24713e-09
7.76833e-09
7.75284e-09
7.75025e-09
7.76997e-09
2.17316e-08
2.16881e-08
2.16817e-08
2.17376e-08
5.21926e-08
5.20872e-08
5.20758e-08
5.22126e-08
1.11522e-07
1.11295e-07
1.11285e-07
1.11586e-07
2.16835e-07
2.16391e-07
2.16413e-07
2.17026e-07
3.89376e-07
3.88573e-07
3.88714e-07
3.8989e-07
6.52451e-07
6.51096e-07
6.5153e-07
6.5369e-07
1.02798e-06
1.02582e-06
1.0268e-06
1.03064e-06
1.53231e-06
1.52907e-06
1.5308e-06
1.53741e-06
2.17243e-06
2.16785e-06
2.17027e-06
2.1812e-06
2.94367e-06
2.93764e-06
2.94009e-06
2.95726e-06
3.82916e-06
3.8218e-06
3.82339e-06
3.84848e-06
4.80152e-06
4.79328e-06
4.79379e-06
4.827e-06
5.82628e-06
5.81771e-06
5.81836e-06
5.85827e-06
6.81752e-06
6.81437e-06
6.80345e-06
6.81977e-06
7.75757e-06
7.75696e-06
7.74387e-06
7.76112e-06
8.69555e-06
8.69784e-06
8.68203e-06
8.70231e-06
9.62435e-06
9.62794e-06
9.61042e-06
9.63258e-06
1.05486e-05
1.05515e-05
1.05328e-05
1.0555e-05
1.14917e-05
1.14887e-05
1.14701e-05
1.1488e-05
1.22089e-05
1.22632e-05
1.22571e-05
1.23335e-05
1.28502e-05
1.29184e-05
1.292e-05
1.30039e-05
1.34403e-05
1.3518e-05
1.35205e-05
1.36149e-05
1.39915e-05
1.40703e-05
1.40666e-05
1.4177e-05
1.44915e-05
1.45494e-05
1.45576e-05
1.4694e-05
1.49152e-05
1.49264e-05
1.49733e-05
1.51604e-05
1.52623e-05
1.53644e-05
1.5366e-05
1.55153e-05
1.55159e-05
1.56333e-05
1.56245e-05
1.58e-05
1.56643e-05
1.57851e-05
1.57348e-05
1.59875e-05
1.56994e-05
1.57666e-05
1.56324e-05
1.60847e-05
1.55909e-05
1.55306e-05
1.55222e-05
1.60041e-05
1.53197e-05
1.52619e-05
1.52675e-05
1.57791e-05
1.49008e-05
1.48601e-05
1.4849e-05
1.53826e-05
1.42538e-05
1.42887e-05
1.42229e-05
1.47583e-05
1.32692e-05
1.3597e-05
1.33507e-05
1.38724e-05
1.21585e-05
1.24779e-05
1.22399e-05
1.26948e-05
1.0787e-05
1.10801e-05
1.09073e-05
1.12229e-05
9.19461e-06
9.47112e-06
9.35227e-06
9.56778e-06
7.51124e-06
7.78354e-06
7.67429e-06
7.85725e-06
5.90783e-06
6.17229e-06
6.0669e-06
6.23417e-06
4.52392e-06
4.76693e-06
4.66045e-06
4.82674e-06
3.43415e-06
3.6401e-06
3.52019e-06
3.7122e-06
2.65969e-06
2.80792e-06
2.68946e-06
2.9082e-06
2.20922e-06
2.24116e-06
2.18917e-06
2.38227e-06
1.91021e-06
2.05799e-06
1.99173e-06
2.15098e-06
)
;

boundaryField
{
    inlet
    {
        type            cyclic;
    }
    outlet
    {
        type            cyclic;
    }
    fixedWalls-bottom
    {
        type            nutkWallFunction;
        Cmu             0.09;
        kappa           0.41;
        E               9.8;
        value           uniform 0;
    }
    fixedWalls-top
    {
        type            symmetry;
    }
    frontAndBack
    {
        type            empty;
    }
}


// ************************************************************************* //
