/*--------------------------------*- C++ -*----------------------------------*\
  =========                 |
  \\      /  F ield         | OpenFOAM: The Open Source CFD Toolbox
   \\    /   O peration     | Website:  https://openfoam.org
    \\  /    A nd           | Version:  10
     \\/     M anipulation  |
\*---------------------------------------------------------------------------*/
FoamFile
{
    format      ascii;
    class       volScalarField;
    location    "289";
    object      omega;
}
// * * * * * * * * * * * * * * * * * * * * * * * * * * * * * * * * * * * * * //

dimensions      [0 0 -1 0 0 0 0];

internalField   nonuniform List<scalar> 
200
(
8068.35
8068.35
8068.35
8068.35
1368.42
1368.42
1368.42
1368.42
454.178
454.18
454.18
454.179
210.317
210.318
210.318
210.318
117.356
117.357
117.356
117.356
73.5843
73.5846
73.584
73.5835
49.9774
49.9776
49.9761
49.9754
36.0117
36.0119
36.009
36.0079
27.1897
27.1899
27.185
27.1832
21.3451
21.3452
21.3378
21.3351
17.3344
17.3346
17.3244
17.3202
14.5091
14.5095
14.4965
14.4901
12.4786
12.4795
12.4642
12.4547
10.9963
10.9978
10.9812
10.9677
9.89995
9.9023
9.8858
9.86753
9.07988
9.08299
9.06803
9.04448
8.45992
8.46362
8.45086
8.42263
7.9864
7.99048
7.97896
7.94834
7.62052
7.6251
7.61279
7.58204
7.33347
7.33741
7.32388
7.29441
7.10279
7.10578
7.09075
7.06336
6.91224
6.91357
6.89723
6.8721
6.74925
6.74661
6.73148
6.70759
6.60471
6.58968
6.58522
6.55968
6.46874
6.44691
6.44328
6.4178
6.33113
6.30413
6.30012
6.27466
6.18534
6.15454
6.1498
6.12382
6.02613
5.99341
5.98765
5.96027
5.85058
5.81932
5.81139
5.78106
5.65989
5.63677
5.62244
5.58588
5.46093
5.45544
5.42726
5.3764
5.25486
5.21651
5.20653
5.17065
5.04101
4.99919
4.99225
4.95108
4.82043
4.78165
4.78147
4.72326
4.59303
4.56863
4.58961
4.48262
4.36277
4.36938
4.35785
4.25024
4.12727
4.13577
4.1232
4.01345
3.88811
3.89349
3.88653
3.77472
3.65935
3.64812
3.6557
3.54374
3.46614
3.38514
3.43844
3.32627
3.26028
3.18048
3.2349
3.13273
3.08614
3.00823
3.05087
2.97531
2.95682
2.87417
2.90764
2.84995
2.87403
2.77734
2.81471
2.75599
2.82864
2.7116
2.75675
2.68947
2.80571
2.66704
2.72554
2.63884
2.78769
2.63412
2.71995
2.58778
2.75261
2.61015
2.71956
2.52513
2.65634
2.61822
2.67533
2.46895
2.69253
2.50171
2.58088
2.3994
)
;

boundaryField
{
    inlet
    {
        type            cyclic;
    }
    outlet
    {
        type            cyclic;
    }
    fixedWalls-bottom
    {
        beta1           0.075;
        blended         0;
        type            omegaWallFunction;
        value           nonuniform List<scalar> 4(8068.35 8068.35 8068.35 8068.35);
    }
    fixedWalls-top
    {
        type            symmetry;
    }
    frontAndBack
    {
        type            empty;
    }
}


// ************************************************************************* //
