/*--------------------------------*- C++ -*----------------------------------*\
  =========                 |
  \\      /  F ield         | OpenFOAM: The Open Source CFD Toolbox
   \\    /   O peration     | Website:  https://openfoam.org
    \\  /    A nd           | Version:  10
     \\/     M anipulation  |
\*---------------------------------------------------------------------------*/
FoamFile
{
    format      ascii;
    class       volScalarField;
    location    "289";
    object      p;
}
// * * * * * * * * * * * * * * * * * * * * * * * * * * * * * * * * * * * * * //

dimensions      [0 2 -2 0 0 0 0];

internalField   nonuniform List<scalar> 
200
(
5.98002e-11
4.98209e-07
-5.62289e-08
-5.53838e-07
2.38879e-10
4.97472e-07
-5.62374e-08
-5.53098e-07
3.1865e-10
4.96707e-07
-5.62913e-08
-5.5234e-07
4.07392e-10
4.96183e-07
-5.63742e-08
-5.51813e-07
5.35213e-10
4.9585e-07
-5.65144e-08
-5.51488e-07
7.36492e-10
4.95752e-07
-5.67144e-08
-5.5139e-07
1.04262e-09
4.95833e-07
-5.70269e-08
-5.51478e-07
1.48328e-09
4.96151e-07
-5.74627e-08
-5.51796e-07
2.10084e-09
4.9664e-07
-5.80824e-08
-5.52292e-07
2.92e-09
4.97342e-07
-5.88954e-08
-5.52994e-07
3.982e-09
4.98169e-07
-5.9958e-08
-5.53829e-07
5.29072e-09
4.99141e-07
-6.12605e-08
-5.54802e-07
6.85489e-09
5.00147e-07
-6.28243e-08
-5.55816e-07
8.62586e-09
5.01175e-07
-6.45888e-08
-5.56846e-07
1.05677e-08
5.02061e-07
-6.65294e-08
-5.57738e-07
1.26028e-08
5.02704e-07
-6.85578e-08
-5.58383e-07
1.46727e-08
5.02847e-07
-7.06256e-08
-5.58532e-07
1.66656e-08
5.02349e-07
-7.26112e-08
-5.58037e-07
1.88456e-08
5.00958e-07
-7.47886e-08
-5.5665e-07
2.27766e-08
4.98348e-07
-7.87118e-08
-5.54045e-07
2.89089e-08
4.94208e-07
-8.48411e-08
-5.49908e-07
3.60801e-08
4.88475e-07
-9.20048e-08
-5.4418e-07
4.42677e-08
4.80753e-07
-1.0019e-07
-5.36462e-07
5.37964e-08
4.70572e-07
-1.09712e-07
-5.26286e-07
6.45709e-08
4.57914e-07
-1.20484e-07
-5.13633e-07
7.38698e-08
4.45081e-07
-1.29775e-07
-5.00806e-07
8.12978e-08
4.32566e-07
-1.37197e-07
-4.88293e-07
8.93846e-08
4.18137e-07
-1.4527e-07
-4.73867e-07
9.84467e-08
4.00419e-07
-1.54319e-07
-4.56147e-07
1.06916e-07
3.78279e-07
-1.62772e-07
-4.34006e-07
1.12871e-07
3.51201e-07
-1.68713e-07
-4.06924e-07
1.20968e-07
3.22211e-07
-1.76796e-07
-3.77931e-07
1.3414e-07
2.92457e-07
-1.89951e-07
-3.4817e-07
1.48026e-07
2.57827e-07
-2.03815e-07
-3.13527e-07
1.589e-07
2.12989e-07
-2.1465e-07
-2.68665e-07
1.63545e-07
1.58992e-07
-2.19245e-07
-2.14628e-07
1.64157e-07
1.01202e-07
-2.1979e-07
-1.56786e-07
1.66152e-07
4.09053e-08
-2.21715e-07
-9.64243e-08
1.73215e-07
-2.04249e-08
-2.287e-07
-3.50229e-08
1.89837e-07
-7.77934e-08
-2.45247e-07
2.24263e-08
2.15631e-07
-1.31285e-07
-2.70961e-07
7.6003e-08
2.46846e-07
-1.8332e-07
-3.02094e-07
1.28134e-07
2.81361e-07
-2.32149e-07
-3.36519e-07
1.77063e-07
3.1718e-07
-2.77449e-07
-3.72245e-07
2.22469e-07
3.52537e-07
-3.19186e-07
-4.07506e-07
2.64309e-07
3.859e-07
-3.56762e-07
-4.40774e-07
3.01985e-07
4.15828e-07
-3.89486e-07
-4.70614e-07
3.34798e-07
4.40677e-07
-4.15991e-07
-4.95388e-07
3.61376e-07
4.58767e-07
-4.3444e-07
-5.13424e-07
3.79877e-07
4.68592e-07
-4.42754e-07
-5.23213e-07
3.88234e-07
)
;

boundaryField
{
    inlet
    {
        type            cyclic;
    }
    outlet
    {
        type            cyclic;
    }
    fixedWalls-bottom
    {
        type            zeroGradient;
    }
    fixedWalls-top
    {
        type            symmetry;
    }
    frontAndBack
    {
        type            empty;
    }
}


// ************************************************************************* //
