/*--------------------------------*- C++ -*----------------------------------*\
  =========                 |
  \\      /  F ield         | OpenFOAM: The Open Source CFD Toolbox
   \\    /   O peration     | Website:  https://openfoam.org
    \\  /    A nd           | Version:  10
     \\/     M anipulation  |
\*---------------------------------------------------------------------------*/
FoamFile
{
    format      ascii;
    class       surfaceScalarField;
    location    "289";
    object      phi;
}
// * * * * * * * * * * * * * * * * * * * * * * * * * * * * * * * * * * * * * //

dimensions      [0 3 -1 0 0 0 0];

internalField   nonuniform List<scalar> 
346
(
0.000255871
-6.59409e-10
0.000255873
-2.28674e-09
0.000255873
5.95794e-11
2.29291e-09
0.000792278
-5.39535e-10
0.000792284
-8.32581e-09
0.000792284
8.76429e-11
8.36855e-09
0.00136952
-2.59513e-10
0.00136953
-1.77637e-08
0.00136953
-1.45505e-10
1.78059e-08
0.00198977
2.02755e-10
0.00198978
-2.97722e-08
0.00198978
-5.09904e-10
2.985e-08
0.00265527
8.64987e-10
0.00265529
-4.39303e-08
0.00265529
-1.15117e-09
4.39991e-08
0.00336835
1.5485e-09
0.00336837
-5.92145e-08
0.00336837
-1.76964e-09
5.93163e-08
0.00413141
2.23043e-09
0.00413142
-7.51877e-08
0.00413143
-2.44367e-09
7.5276e-08
0.00494691
2.54805e-09
0.00494693
-9.0794e-08
0.00494693
-2.71658e-09
9.09127e-08
0.0058174
2.42173e-09
0.00581742
-1.05679e-07
0.00581742
-2.58787e-09
1.05782e-07
0.00674548
1.33817e-09
0.00674549
-1.18901e-07
0.00674549
-1.47215e-09
1.19032e-07
0.0077338
-8.08201e-10
0.00773381
-1.3031e-07
0.00773381
6.73789e-10
1.30424e-07
0.00878506
-4.6322e-09
0.00878507
-1.39211e-07
0.00878507
4.52196e-09
1.3935e-07
0.00990202
-1.02896e-08
0.00990203
-1.45765e-07
0.00990203
1.01779e-08
1.45885e-07
0.0110875
-1.85711e-08
0.0110875
-1.49593e-07
0.0110874
1.84786e-08
1.49737e-07
0.0123442
-2.98637e-08
0.0123442
-1.51269e-07
0.0123441
2.97691e-08
1.51393e-07
0.0136749
-4.52974e-08
0.0136749
-1.50867e-07
0.0136749
4.5219e-08
1.51014e-07
0.0150827
-6.5643e-08
0.0150827
-1.49489e-07
0.0150826
6.55625e-08
1.49613e-07
0.0165701
-9.2462e-08
0.0165701
-1.47433e-07
0.0165701
9.23954e-08
1.47579e-07
0.0181402
-1.27068e-07
0.0181402
-1.45246e-07
0.0181402
1.27e-07
1.45366e-07
0.0197957
-1.66309e-07
0.0197957
-1.42435e-07
0.0197957
1.66252e-07
1.42579e-07
0.0215395
-2.04879e-07
0.0215395
-1.3898e-07
0.0215394
2.04821e-07
1.39095e-07
0.0233742
-2.42266e-07
0.0233742
-1.33736e-07
0.0233742
2.42218e-07
1.33875e-07
0.0253025
-2.76867e-07
0.0253025
-1.27136e-07
0.0253025
2.76818e-07
1.27242e-07
0.0273269
-3.0682e-07
0.0273269
-1.19917e-07
0.0273269
3.06781e-07
1.20047e-07
0.0294497
-3.27681e-07
0.0294497
-1.16354e-07
0.0294497
3.27641e-07
1.16451e-07
0.0316731
-3.46029e-07
0.031673
-1.12821e-07
0.031673
3.45998e-07
1.1294e-07
0.033999
-3.69883e-07
0.033999
-1.04295e-07
0.033999
3.69851e-07
1.04377e-07
0.0364291
-3.97173e-07
0.0364291
-9.17819e-08
0.0364291
3.97151e-07
9.18841e-08
0.0389648
-4.23324e-07
0.0389648
-7.73827e-08
0.0389648
4.233e-07
7.74524e-08
0.0416069
-4.46914e-07
0.0416069
-6.63359e-08
0.0416069
4.46902e-07
6.64203e-08
0.0443559
-4.78682e-07
0.0443559
-6.75384e-08
0.0443559
4.78665e-07
6.75925e-08
0.0472116
-5.15285e-07
0.0472116
-7.32579e-08
0.0472116
5.15283e-07
7.33197e-08
0.0501733
-5.42508e-07
0.0501733
-6.54747e-08
0.0501733
5.42497e-07
6.55155e-08
0.0532397
-5.60599e-07
0.0532397
-3.86382e-08
0.0532396
5.60607e-07
3.86792e-08
0.0564084
-5.68175e-07
0.0564084
-1.03335e-08
0.0564084
5.68168e-07
1.03632e-08
0.0596763
-5.69218e-07
0.0596763
-1.88111e-11
0.0596763
5.69231e-07
4.07128e-11
0.0630392
-5.68134e-07
0.0630392
-6.57618e-09
0.0630392
5.68131e-07
6.59854e-09
0.0664915
-5.61346e-07
0.0664916
-2.94471e-08
0.0664916
5.61362e-07
2.94558e-08
0.0700265
-5.50581e-07
0.0700266
-6.82391e-08
0.0700266
5.50576e-07
6.82594e-08
0.0736358
-5.29844e-07
0.0736359
-1.0455e-07
0.0736359
5.29859e-07
1.04555e-07
0.0773093
-4.98124e-07
0.0773093
-1.2683e-07
0.0773094
4.98117e-07
1.2685e-07
0.0810348
-4.59463e-07
0.0810349
-1.41217e-07
0.0810349
4.59473e-07
1.41223e-07
0.0847981
-4.15576e-07
0.0847981
-1.46026e-07
0.0847981
4.15568e-07
1.46046e-07
0.0885819
-3.67463e-07
0.0885819
-1.42495e-07
0.088582
3.67466e-07
1.42503e-07
0.0923665
-3.15851e-07
0.0923665
-1.32418e-07
0.0923666
3.15846e-07
1.32431e-07
0.0961287
-2.60179e-07
0.0961287
-1.16408e-07
0.0961288
2.60179e-07
1.16415e-07
0.0998418
-1.99758e-07
0.0998417
-9.55871e-08
0.0998418
1.99756e-07
9.55927e-08
0.103475
-1.34756e-07
0.103475
-7.09163e-08
0.103475
1.34753e-07
7.09205e-08
0.106994
-6.5869e-08
0.106994
-4.52503e-08
0.106994
6.58664e-08
4.52529e-08
0.110358
0.110358
0.110358
)
;

boundaryField
{
    inlet
    {
        type            cyclic;
        value           nonuniform List<scalar> 
50
(
-0.110358
-0.106994
-0.103475
-0.0998418
-0.0961288
-0.0923666
-0.088582
-0.0847981
-0.0810349
-0.0773093
-0.0736358
-0.0700265
-0.0664915
-0.0630392
-0.0596763
-0.0564084
-0.0532397
-0.0501733
-0.0472116
-0.0443559
-0.0416069
-0.0389648
-0.0364291
-0.033999
-0.031673
-0.0294497
-0.0273269
-0.0253025
-0.0233742
-0.0215394
-0.0197957
-0.0181402
-0.0165701
-0.0150826
-0.0136749
-0.0123441
-0.0110874
-0.00990202
-0.00878506
-0.00773379
-0.00674548
-0.0058174
-0.00494691
-0.00413141
-0.00336835
-0.00265527
-0.00198977
-0.00136952
-0.000792278
-0.000255871
)
;
    }
    outlet
    {
        type            cyclic;
        value           nonuniform List<scalar> 
50
(
0.110358
0.106994
0.103475
0.0998418
0.0961288
0.0923666
0.088582
0.0847981
0.0810349
0.0773093
0.0736358
0.0700265
0.0664915
0.0630392
0.0596763
0.0564084
0.0532397
0.0501733
0.0472116
0.0443559
0.0416069
0.0389648
0.0364291
0.033999
0.031673
0.0294497
0.0273269
0.0253025
0.0233742
0.0215394
0.0197957
0.0181402
0.0165701
0.0150826
0.0136749
0.0123441
0.0110874
0.00990202
0.00878506
0.00773379
0.00674548
0.0058174
0.00494691
0.00413141
0.00336835
0.00265527
0.00198977
0.00136952
0.000792278
0.000255871
)
;
    }
    fixedWalls-bottom
    {
        type            calculated;
        value           uniform 0;
    }
    fixedWalls-top
    {
        type            symmetry;
        value           uniform 0;
    }
    frontAndBack
    {
        type            empty;
        value           nonuniform List<scalar> 0();
    }
}


// ************************************************************************* //
