/*--------------------------------*- C++ -*----------------------------------*\
  =========                 |
  \\      /  F ield         | OpenFOAM: The Open Source CFD Toolbox
   \\    /   O peration     | Website:  https://openfoam.org
    \\  /    A nd           | Version:  10
     \\/     M anipulation  |
\*---------------------------------------------------------------------------*/
FoamFile
{
    format      ascii;
    class       volSymmTensorField;
    location    "289";
    object      R;
}
// * * * * * * * * * * * * * * * * * * * * * * * * * * * * * * * * * * * * * //

dimensions      [0 2 -2 0 0 0 0];

internalField   nonuniform List<symmTensor> 
200
(
(8.15292e-11 -4.54838e-14 -0 8.15292e-11 -0 8.15292e-11)
(8.1368e-11 -4.53941e-14 -0 8.1368e-11 -0 8.1368e-11)
(8.13382e-11 -4.53779e-14 -0 8.13382e-11 -0 8.13382e-11)
(8.15424e-11 -4.54914e-14 -0 8.15424e-11 -0 8.15424e-11)
(2.46162e-09 -8.02114e-12 -0 2.46162e-09 -0 2.46162e-09)
(2.45675e-09 -8.00529e-12 -0 2.45675e-09 -0 2.45675e-09)
(2.45585e-09 -8.00242e-12 -0 2.45585e-09 -0 2.45585e-09)
(2.46202e-09 -8.02246e-12 -0 2.46202e-09 -0 2.46202e-09)
(1.78039e-08 -1.73087e-10 -0 1.78039e-08 -0 1.78039e-08)
(1.77687e-08 -1.72745e-10 -0 1.77687e-08 -0 1.77687e-08)
(1.77622e-08 -1.72683e-10 -0 1.77622e-08 -0 1.77622e-08)
(1.78068e-08 -1.73116e-10 -0 1.78068e-08 -0 1.78068e-08)
(6.63098e-08 -1.378e-09 -0 6.63098e-08 -0 6.63098e-08)
(6.61786e-08 -1.37526e-09 -0 6.61786e-08 -0 6.61786e-08)
(6.61546e-08 -1.37477e-09 -0 6.61546e-08 -0 6.61546e-08)
(6.6321e-08 -1.37823e-09 -0 6.6321e-08 -0 6.6321e-08)
(1.75778e-07 -6.47727e-09 -0 1.75778e-07 -0 1.75778e-07)
(1.7543e-07 -6.4644e-09 -0 1.7543e-07 -0 1.7543e-07)
(1.75367e-07 -6.46214e-09 -0 1.75367e-07 -0 1.75367e-07)
(1.7581e-07 -6.47844e-09 -0 1.7581e-07 -0 1.7581e-07)
(3.81085e-07 -2.21496e-08 -0 3.81085e-07 -0 3.81085e-07)
(3.80327e-07 -2.21055e-08 -0 3.80327e-07 -0 3.80327e-07)
(3.80196e-07 -2.20981e-08 -0 3.80196e-07 -0 3.80196e-07)
(3.81161e-07 -2.21543e-08 -0 3.81161e-07 -0 3.81161e-07)
(7.2406e-07 -6.12532e-08 -0 7.2406e-07 -0 7.2406e-07)
(7.22613e-07 -6.11303e-08 -0 7.22613e-07 -0 7.22613e-07)
(7.22378e-07 -6.11124e-08 -0 7.22378e-07 -0 7.22378e-07)
(7.24229e-07 -6.12697e-08 -0 7.24229e-07 -0 7.24229e-07)
(1.25303e-06 -1.45355e-07 -0 1.25303e-06 -0 1.25303e-06)
(1.25051e-06 -1.45061e-07 -0 1.25051e-06 -0 1.25051e-06)
(1.25013e-06 -1.45029e-07 -0 1.25013e-06 -0 1.25013e-06)
(1.25338e-06 -1.4541e-07 -0 1.25338e-06 -0 1.25338e-06)
(2.0215e-06 -3.06719e-07 -0 2.0215e-06 -0 2.0215e-06)
(2.01741e-06 -3.06094e-07 -0 2.01741e-06 -0 2.01741e-06)
(2.01686e-06 -3.06065e-07 -0 2.01686e-06 -0 2.01686e-06)
(2.02218e-06 -3.06894e-07 -0 2.02218e-06 -0 2.02218e-06)
(3.08558e-06 -5.88611e-07 -0 3.08558e-06 -0 3.08558e-06)
(3.07928e-06 -5.87404e-07 -0 3.07929e-06 -0 3.07928e-06)
(3.07853e-06 -5.87462e-07 -0 3.07853e-06 -0 3.07853e-06)
(3.08684e-06 -5.89125e-07 -0 3.08684e-06 -0 3.08684e-06)
(4.49974e-06 -1.04262e-06 -0 4.49974e-06 -0 4.49974e-06)
(4.49052e-06 -1.04047e-06 -0 4.49052e-06 -0 4.49052e-06)
(4.48949e-06 -1.04085e-06 -0 4.48949e-06 -0 4.48949e-06)
(4.50196e-06 -1.04399e-06 -0 4.50196e-06 -0 4.50196e-06)
(6.31099e-06 -1.72223e-06 -0 6.31099e-06 -0 6.31099e-06)
(6.29807e-06 -1.71866e-06 -0 6.29807e-06 -0 6.29807e-06)
(6.2966e-06 -1.71979e-06 -0 6.29659e-06 -0 6.29659e-06)
(6.31467e-06 -1.7255e-06 -0 6.31467e-06 -0 6.31467e-06)
(8.55183e-06 -2.67313e-06 -0 8.55183e-06 -0 8.55183e-06)
(8.53451e-06 -2.66752e-06 -0 8.53452e-06 -0 8.53452e-06)
(8.53214e-06 -2.67005e-06 -0 8.53214e-06 -0 8.53214e-06)
(8.55753e-06 -2.68003e-06 -0 8.55753e-06 -0 8.55753e-06)
(1.12331e-05 -3.92247e-06 -0 1.12331e-05 -0 1.12331e-05)
(1.1211e-05 -3.91419e-06 -0 1.1211e-05 -0 1.1211e-05)
(1.12067e-05 -3.91861e-06 -0 1.12067e-05 -0 1.12067e-05)
(1.12413e-05 -3.93551e-06 -0 1.12413e-05 -0 1.12413e-05)
(1.4338e-05 -5.47025e-06 -0 1.4338e-05 -0 1.4338e-05)
(1.43112e-05 -5.45873e-06 -0 1.43112e-05 -0 1.43112e-05)
(1.43032e-05 -5.46479e-06 -0 1.43032e-05 -0 1.43032e-05)
(1.43487e-05 -5.49229e-06 -0 1.43487e-05 -0 1.43487e-05)
(1.78188e-05 -7.28535e-06 -0 1.78188e-05 -0 1.78188e-05)
(1.77883e-05 -7.27043e-06 -0 1.77883e-05 -0 1.77883e-05)
(1.77739e-05 -7.27647e-06 -0 1.77739e-05 -0 1.77739e-05)
(1.78313e-05 -7.31894e-06 -0 1.78313e-05 -0 1.78313e-05)
(2.15962e-05 -9.30679e-06 -0 2.15962e-05 -0 2.15962e-05)
(2.15642e-05 -9.28894e-06 -0 2.15642e-05 -0 2.15642e-05)
(2.15406e-05 -9.29275e-06 -0 2.15406e-05 -0 2.15406e-05)
(2.16096e-05 -9.35369e-06 -0 2.16096e-05 -0 2.16096e-05)
(2.55645e-05 -1.14506e-05 -0 2.55646e-05 -0 2.55645e-05)
(2.55338e-05 -1.1431e-05 -0 2.55338e-05 -0 2.55338e-05)
(2.54997e-05 -1.14322e-05 -0 2.54997e-05 -0 2.54997e-05)
(2.55777e-05 -1.15113e-05 -0 2.55777e-05 -0 2.55777e-05)
(2.95995e-05 -1.36208e-05 -0 2.95995e-05 -0 2.95995e-05)
(2.95737e-05 -1.36008e-05 -0 2.95737e-05 -0 2.95737e-05)
(2.95293e-05 -1.36023e-05 -0 2.95293e-05 -0 2.95293e-05)
(2.96117e-05 -1.36955e-05 -0 2.96117e-05 -0 2.96117e-05)
(3.35687e-05 -1.56095e-05 -0 3.35688e-05 -0 3.35687e-05)
(3.35533e-05 -1.56023e-05 -0 3.35533e-05 -0 3.35533e-05)
(3.34995e-05 -1.55773e-05 -0 3.34994e-05 -0 3.34995e-05)
(3.35798e-05 -1.56146e-05 -0 3.35798e-05 -0 3.35798e-05)
(3.73714e-05 -1.73782e-05 -0 3.73715e-05 -0 3.73715e-05)
(3.73685e-05 -1.73768e-05 -0 3.73685e-05 -0 3.73685e-05)
(3.73055e-05 -1.73475e-05 -0 3.73054e-05 -0 3.73055e-05)
(3.73888e-05 -1.73862e-05 -0 3.73888e-05 -0 3.73888e-05)
(4.09336e-05 -1.90381e-05 -0 4.09337e-05 -0 4.09337e-05)
(4.09444e-05 -1.90431e-05 -0 4.09444e-05 -0 4.09444e-05)
(4.08703e-05 -1.90085e-05 -0 4.08703e-05 -0 4.08703e-05)
(4.09665e-05 -1.9053e-05 -0 4.09665e-05 -0 4.09665e-05)
(4.41898e-05 -2.05702e-05 -0 4.41899e-05 -0 4.41898e-05)
(4.42066e-05 -2.05779e-05 -0 4.42066e-05 -0 4.42066e-05)
(4.41277e-05 -2.05404e-05 -0 4.41276e-05 -0 4.41277e-05)
(4.42321e-05 -2.05879e-05 -0 4.42321e-05 -0 4.42321e-05)
(4.70823e-05 -2.19813e-05 -0 4.70824e-05 -0 4.70823e-05)
(4.71011e-05 -2.19876e-05 -0 4.7101e-05 -0 4.7101e-05)
(4.70191e-05 -2.19486e-05 -0 4.7019e-05 -0 4.70191e-05)
(4.71272e-05 -2.1995e-05 -0 4.71272e-05 -0 4.71272e-05)
(4.95618e-05 -2.3316e-05 -0 4.95619e-05 -0 4.95618e-05)
(4.9569e-05 -2.33101e-05 -0 4.9569e-05 -0 4.9569e-05)
(4.94918e-05 -2.32723e-05 -0 4.94917e-05 -0 4.94918e-05)
(4.95921e-05 -2.33089e-05 -0 4.95921e-05 -0 4.95921e-05)
(5.15305e-05 -2.40847e-05 -0 5.15306e-05 -0 5.15305e-05)
(5.15391e-05 -2.41918e-05 -0 5.15391e-05 -0 5.15391e-05)
(5.14809e-05 -2.41799e-05 -0 5.14809e-05 -0 5.14809e-05)
(5.15922e-05 -2.43305e-05 -0 5.15923e-05 -0 5.15923e-05)
(5.29886e-05 -2.46093e-05 -0 5.29886e-05 -0 5.29886e-05)
(5.30045e-05 -2.47398e-05 -0 5.30045e-05 -0 5.30045e-05)
(5.29702e-05 -2.47427e-05 -0 5.29701e-05 -0 5.29701e-05)
(5.30892e-05 -2.49035e-05 -0 5.30892e-05 -0 5.30892e-05)
(5.39952e-05 -2.49446e-05 -0 5.39953e-05 -0 5.39952e-05)
(5.40127e-05 -2.50888e-05 -0 5.40127e-05 -0 5.40127e-05)
(5.39709e-05 -2.50934e-05 -0 5.39709e-05 -0 5.39709e-05)
(5.40989e-05 -2.52685e-05 -0 5.4099e-05 -0 5.40989e-05)
(5.45724e-05 -2.51185e-05 -0 5.45725e-05 -0 5.45724e-05)
(5.45863e-05 -2.52598e-05 -0 5.45862e-05 -0 5.45863e-05)
(5.44978e-05 -2.52533e-05 -0 5.44977e-05 -0 5.44978e-05)
(5.46388e-05 -2.54515e-05 -0 5.46388e-05 -0 5.46388e-05)
(5.468e-05 -2.51131e-05 -0 5.46801e-05 -0 5.468e-05)
(5.46744e-05 -2.52138e-05 -0 5.46743e-05 -0 5.46744e-05)
(5.45662e-05 -2.5228e-05 -0 5.45662e-05 -0 5.45662e-05)
(5.47193e-05 -2.54643e-05 -0 5.47193e-05 -0 5.47193e-05)
(5.43007e-05 -2.48937e-05 -0 5.43008e-05 -0 5.43008e-05)
(5.42867e-05 -2.49127e-05 -0 5.42867e-05 -0 5.42867e-05)
(5.4176e-05 -2.49909e-05 -0 5.41759e-05 -0 5.41759e-05)
(5.43388e-05 -2.5303e-05 -0 5.43388e-05 -0 5.43388e-05)
(5.34674e-05 -2.44712e-05 -0 5.34675e-05 -0 5.34675e-05)
(5.34322e-05 -2.46349e-05 -0 5.34322e-05 -0 5.34322e-05)
(5.33357e-05 -2.46373e-05 -0 5.33356e-05 -0 5.33356e-05)
(5.34827e-05 -2.48769e-05 -0 5.34827e-05 -0 5.34827e-05)
(5.2144e-05 -2.38326e-05 -0 5.2144e-05 -0 5.2144e-05)
(5.21025e-05 -2.40125e-05 -0 5.21024e-05 -0 5.21025e-05)
(5.2001e-05 -2.39989e-05 -0 5.20009e-05 -0 5.2001e-05)
(5.21515e-05 -2.42689e-05 -0 5.21515e-05 -0 5.21515e-05)
(5.03391e-05 -2.2977e-05 -0 5.03392e-05 -0 5.03392e-05)
(5.03191e-05 -2.31538e-05 -0 5.0319e-05 -0 5.03191e-05)
(5.01569e-05 -2.30801e-05 -0 5.01569e-05 -0 5.01569e-05)
(5.03419e-05 -2.3451e-05 -0 5.03419e-05 -0 5.03419e-05)
(4.80717e-05 -2.19135e-05 -0 4.80718e-05 -0 4.80718e-05)
(4.80213e-05 -2.20073e-05 -0 4.80212e-05 -0 4.80213e-05)
(4.78312e-05 -2.18203e-05 -0 4.78312e-05 -0 4.78312e-05)
(4.80677e-05 -2.24515e-05 -0 4.80678e-05 -0 4.80678e-05)
(4.53465e-05 -2.06251e-05 -0 4.53465e-05 -0 4.53465e-05)
(4.52393e-05 -2.05454e-05 -0 4.52393e-05 -0 4.52393e-05)
(4.50956e-05 -2.05346e-05 -0 4.50956e-05 -0 4.50956e-05)
(4.53473e-05 -2.11719e-05 -0 4.53474e-05 -0 4.53474e-05)
(4.21523e-05 -1.91187e-05 -0 4.21523e-05 -0 4.21523e-05)
(4.20799e-05 -1.90469e-05 -0 4.20799e-05 -0 4.20799e-05)
(4.19673e-05 -1.9054e-05 -0 4.19673e-05 -0 4.19673e-05)
(4.22191e-05 -1.96923e-05 -0 4.2219e-05 -0 4.2219e-05)
(3.86239e-05 -1.74493e-05 -0 3.86239e-05 -0 3.86239e-05)
(3.85716e-05 -1.74018e-05 -0 3.85716e-05 -0 3.85716e-05)
(3.84741e-05 -1.7389e-05 -0 3.84741e-05 -0 3.84741e-05)
(3.87099e-05 -1.80137e-05 -0 3.87099e-05 -0 3.87099e-05)
(3.47732e-05 -1.55649e-05 -0 3.47731e-05 -0 3.47731e-05)
(3.47513e-05 -1.56031e-05 -0 3.47514e-05 -0 3.47513e-05)
(3.4663e-05 -1.55313e-05 -0 3.46631e-05 -0 3.4663e-05)
(3.48664e-05 -1.61159e-05 -0 3.48663e-05 -0 3.48664e-05)
(3.0662e-05 -1.34121e-05 -0 3.0662e-05 -0 3.0662e-05)
(3.06851e-05 -1.37431e-05 -0 3.06852e-05 -0 3.06851e-05)
(3.06037e-05 -1.34943e-05 -0 3.06037e-05 -0 3.06037e-05)
(3.07623e-05 -1.40216e-05 -0 3.07622e-05 -0 3.07623e-05)
(2.64267e-05 -1.12741e-05 -0 2.64267e-05 -0 2.64267e-05)
(2.64572e-05 -1.157e-05 -0 2.64572e-05 -0 2.64572e-05)
(2.63965e-05 -1.13494e-05 -0 2.63966e-05 -0 2.63966e-05)
(2.65129e-05 -1.17712e-05 -0 2.65129e-05 -0 2.65129e-05)
(2.21935e-05 -9.07588e-06 -0 2.21935e-05 -0 2.21935e-05)
(2.2221e-05 -9.32239e-06 -0 2.2221e-05 -0 2.2221e-05)
(2.21844e-05 -9.17697e-06 -0 2.21845e-05 -0 2.21845e-05)
(2.22611e-05 -9.4426e-06 -0 2.2261e-05 -0 2.2261e-05)
(1.81245e-05 -6.92337e-06 -0 1.81245e-05 -0 1.81245e-05)
(1.81477e-05 -7.13156e-06 -0 1.81477e-05 -0 1.81477e-05)
(1.81287e-05 -7.042e-06 -0 1.81287e-05 -0 1.81287e-05)
(1.81784e-05 -7.20436e-06 -0 1.81784e-05 -0 1.81784e-05)
(1.43917e-05 -4.97204e-06 -0 1.43917e-05 -0 1.43917e-05)
(1.44117e-05 -5.15227e-06 -0 1.44117e-05 -0 1.44117e-05)
(1.44005e-05 -5.07992e-06 -0 1.44006e-05 -0 1.44006e-05)
(1.44363e-05 -5.20108e-06 -0 1.44363e-05 -0 1.44363e-05)
(1.11408e-05 -3.35645e-06 -0 1.11407e-05 -0 1.11408e-05)
(1.11579e-05 -3.50668e-06 -0 1.11579e-05 -0 1.11579e-05)
(1.11499e-05 -3.4468e-06 -0 1.115e-05 -0 1.11499e-05)
(1.11777e-05 -3.54184e-06 -0 1.11777e-05 -0 1.11777e-05)
(8.46187e-06 -2.13277e-06 -0 8.46184e-06 -0 8.46186e-06)
(8.47572e-06 -2.24731e-06 -0 8.47572e-06 -0 8.47572e-06)
(8.46816e-06 -2.19712e-06 -0 8.46819e-06 -0 8.46817e-06)
(8.49133e-06 -2.27552e-06 -0 8.49133e-06 -0 8.49133e-06)
(6.38225e-06 -1.27679e-06 -0 6.38222e-06 -0 6.38224e-06)
(6.39232e-06 -1.35335e-06 -0 6.39231e-06 -0 6.39232e-06)
(6.38315e-06 -1.30877e-06 -0 6.38318e-06 -0 6.38317e-06)
(6.40425e-06 -1.38017e-06 -0 6.40426e-06 -0 6.40425e-06)
(4.88075e-06 -7.15815e-07 -0 4.88072e-06 -0 4.88073e-06)
(4.88607e-06 -7.55703e-07 -0 4.88606e-06 -0 4.88607e-06)
(4.87607e-06 -7.23823e-07 -0 4.87609e-06 -0 4.87608e-06)
(4.89571e-06 -7.82696e-07 -0 4.89572e-06 -0 4.89572e-06)
(3.91231e-06 -3.61016e-07 -0 3.91229e-06 -0 3.9123e-06)
(3.9119e-06 -3.66224e-07 -0 3.91189e-06 -0 3.9119e-06)
(3.90448e-06 -3.57723e-07 -0 3.9045e-06 -0 3.90449e-06)
(3.92112e-06 -3.89278e-07 -0 3.92113e-06 -0 3.92112e-06)
(3.42888e-06 -1.04852e-07 -0 3.42887e-06 -0 3.42887e-06)
(3.43233e-06 -1.12954e-07 -0 3.43232e-06 -0 3.43233e-06)
(3.42693e-06 -1.09311e-07 -0 3.42694e-06 -0 3.42693e-06)
(3.4407e-06 -1.18052e-07 -0 3.44071e-06 -0 3.4407e-06)
)
;

boundaryField
{
    inlet
    {
        type            cyclic;
    }
    outlet
    {
        type            cyclic;
    }
    fixedWalls-bottom
    {
        type            kqRWallFunction;
        value           nonuniform List<symmTensor> 4((8.15292e-11 -0 -0 8.15292e-11 -0 8.15292e-11) (8.1368e-11 -0 -0 8.1368e-11 -0 8.1368e-11) (8.13382e-11 -0 -0 8.13382e-11 -0 8.13382e-11) (8.15424e-11 -0 -0 8.15424e-11 -0 8.15424e-11));
    }
    fixedWalls-top
    {
        type            symmetry;
    }
    frontAndBack
    {
        type            empty;
    }
}


// ************************************************************************* //
