/*--------------------------------*- C++ -*----------------------------------*\
  =========                 |
  \\      /  F ield         | OpenFOAM: The Open Source CFD Toolbox
   \\    /   O peration     | Website:  https://openfoam.org
    \\  /    A nd           | Version:  10
     \\/     M anipulation  |
\*---------------------------------------------------------------------------*/
FoamFile
{
    format      ascii;
    class       volVectorField;
    location    "289";
    object      U;
}
// * * * * * * * * * * * * * * * * * * * * * * * * * * * * * * * * * * * * * //

dimensions      [0 1 -1 0 0 0 0];

internalField   nonuniform List<vector> 
200
(
(0.0138867 -4.0018e-10 0)
(0.0138868 -4.40765e-10 0)
(0.0138869 6.90426e-11 0)
(0.0138868 4.36732e-10 0)
(0.0417994 -6.71989e-10 0)
(0.0417996 -4.66074e-09 0)
(0.0418 9.82896e-11 0)
(0.0417996 4.69116e-09 0)
(0.0702384 -4.97341e-10 0)
(0.0702387 -1.23656e-08 0)
(0.0702393 2.52915e-11 0)
(0.0702387 1.24081e-08 0)
(0.0992023 -1.00161e-10 0)
(0.0992027 -2.32481e-08 0)
(0.0992035 -2.69054e-10 0)
(0.0992027 2.33079e-08 0)
(0.128689 4.88067e-10 0)
(0.128689 -3.6533e-08 0)
(0.12869 -7.82205e-10 0)
(0.128689 3.66066e-08 0)
(0.158695 1.19274e-09 0)
(0.158695 -5.14558e-08 0)
(0.158696 -1.44242e-09 0)
(0.158695 5.15409e-08 0)
(0.189215 1.91701e-09 0)
(0.189216 -6.72703e-08 0)
(0.189217 -2.13097e-09 0)
(0.189216 6.73653e-08 0)
(0.220245 2.47552e-09 0)
(0.220245 -8.32348e-08 0)
(0.220246 -2.6643e-09 0)
(0.220245 8.3338e-08 0)
(0.251776 2.63865e-09 0)
(0.251776 -9.86297e-08 0)
(0.251777 -2.80439e-09 0)
(0.251776 9.87403e-08 0)
(0.283799 2.11504e-09 0)
(0.283799 -1.12807e-07 0)
(0.2838 -2.26389e-09 0)
(0.283799 1.12923e-07 0)
(0.316303 5.87213e-10 0)
(0.316303 -1.25206e-07 0)
(0.316304 -7.2019e-10 0)
(0.316303 1.25328e-07 0)
(0.349276 -2.29518e-09 0)
(0.349276 -1.35408e-07 0)
(0.349277 2.17388e-09 0)
(0.349276 1.35534e-07 0)
(0.382703 -6.92256e-09 0)
(0.382702 -1.43129e-07 0)
(0.382703 6.81259e-09 0)
(0.382702 1.43258e-07 0)
(0.416564 -1.37566e-08 0)
(0.416564 -1.48256e-07 0)
(0.416565 1.36552e-08 0)
(0.416564 1.48388e-07 0)
(0.450842 -2.33828e-08 0)
(0.450842 -1.50875e-07 0)
(0.450842 2.32899e-08 0)
(0.450841 1.51008e-07 0)
(0.485514 -3.65177e-08 0)
(0.485514 -1.5133e-07 0)
(0.485514 3.64318e-08 0)
(0.485513 1.51465e-07 0)
(0.520556 -5.41701e-08 0)
(0.520556 -1.50243e-07 0)
(0.520556 5.40915e-08 0)
(0.520554 1.50378e-07 0)
(0.555941 -7.78948e-08 0)
(0.555941 -1.48322e-07 0)
(0.555941 7.78224e-08 0)
(0.555939 1.48456e-07 0)
(0.591641 -1.09607e-07 0)
(0.591641 -1.46022e-07 0)
(0.591641 1.09541e-07 0)
(0.591639 1.46156e-07 0)
(0.627625 -1.4551e-07 0)
(0.627625 -1.43851e-07 0)
(0.627625 1.4545e-07 0)
(0.627622 1.43983e-07 0)
(0.66386 -1.85586e-07 0)
(0.66386 -1.4083e-07 0)
(0.66386 1.8553e-07 0)
(0.663858 1.4096e-07 0)
(0.700312 -2.24342e-07 0)
(0.700312 -1.36571e-07 0)
(0.700311 2.24289e-07 0)
(0.700309 1.36698e-07 0)
(0.736939 -2.61021e-07 0)
(0.736938 -1.30565e-07 0)
(0.736938 2.60972e-07 0)
(0.736936 1.30688e-07 0)
(0.773697 -2.93258e-07 0)
(0.773697 -1.24006e-07 0)
(0.773697 2.93212e-07 0)
(0.773696 1.24124e-07 0)
(0.81054 -3.16715e-07 0)
(0.81054 -1.19975e-07 0)
(0.81054 3.16673e-07 0)
(0.810539 1.20088e-07 0)
(0.847416 -3.38597e-07 0)
(0.847417 -1.13434e-07 0)
(0.847416 3.38559e-07 0)
(0.847416 1.13541e-07 0)
(0.884272 -3.57718e-07 0)
(0.884272 -1.08191e-07 0)
(0.884272 3.57685e-07 0)
(0.884271 1.08292e-07 0)
(0.921048 -3.82913e-07 0)
(0.921048 -9.77194e-08 0)
(0.921047 3.82886e-07 0)
(0.921046 9.78106e-08 0)
(0.957677 -4.0954e-07 0)
(0.957677 -8.33612e-08 0)
(0.957676 4.09513e-07 0)
(0.957675 8.34458e-08 0)
(0.994088 -4.3522e-07 0)
(0.994088 -7.04646e-08 0)
(0.994087 4.35198e-07 0)
(0.994087 7.05359e-08 0)
(1.0302 -4.67819e-07 0)
(1.0302 -6.79381e-08 0)
(1.0302 4.67794e-07 0)
(1.0302 6.79998e-08 0)
(1.06594 -4.942e-07 0)
(1.06594 -6.96186e-08 0)
(1.06594 4.9418e-07 0)
(1.06594 6.96664e-08 0)
(1.10121 -5.26717e-07 0)
(1.10121 -7.03149e-08 0)
(1.10121 5.26702e-07 0)
(1.10121 7.03589e-08 0)
(1.13592 -5.51193e-07 0)
(1.13592 -5.19087e-08 0)
(1.13592 5.51196e-07 0)
(1.13592 5.19458e-08 0)
(1.16995 -5.65951e-07 0)
(1.16995 -2.80841e-08 0)
(1.16995 5.65958e-07 0)
(1.16995 2.81281e-08 0)
(1.20321 -5.74521e-07 0)
(1.20321 -3.3828e-09 0)
(1.2032 5.74547e-07 0)
(1.20321 3.41852e-09 0)
(1.23555 -5.73575e-07 0)
(1.23555 1.11124e-09 0)
(1.23555 5.73592e-07 0)
(1.23555 -1.07676e-09 0)
(1.26686 -5.70138e-07 0)
(1.26686 -1.61727e-08 0)
(1.26686 5.70153e-07 0)
(1.26686 1.61904e-08 0)
(1.297 -5.60984e-07 0)
(1.297 -5.11365e-08 0)
(1.297 5.6098e-07 0)
(1.297 5.11457e-08 0)
(1.3258 -5.38264e-07 0)
(1.3258 -8.51801e-08 0)
(1.3258 5.38259e-07 0)
(1.3258 8.5181e-08 0)
(1.35311 -5.13154e-07 0)
(1.35311 -1.20006e-07 0)
(1.35312 5.13151e-07 0)
(1.35312 1.20015e-07 0)
(1.37876 -4.77815e-07 0)
(1.37876 -1.37251e-07 0)
(1.37876 4.77821e-07 0)
(1.37876 1.37274e-07 0)
(1.40254 -4.36498e-07 0)
(1.40254 -1.45473e-07 0)
(1.40254 4.36513e-07 0)
(1.40254 1.45503e-07 0)
(1.42425 -3.90587e-07 0)
(1.42425 -1.46233e-07 0)
(1.42425 3.90601e-07 0)
(1.42425 1.46269e-07 0)
(1.44368 -3.41028e-07 0)
(1.44368 -1.39166e-07 0)
(1.44368 3.41048e-07 0)
(1.44368 1.39198e-07 0)
(1.46057 -2.87654e-07 0)
(1.46057 -1.2609e-07 0)
(1.46057 2.87671e-07 0)
(1.46057 1.2612e-07 0)
(1.47467 -2.29705e-07 0)
(1.47466 -1.08142e-07 0)
(1.47467 2.29725e-07 0)
(1.47467 1.08176e-07 0)
(1.4857 -1.67044e-07 0)
(1.48569 -8.5497e-08 0)
(1.4857 1.6709e-07 0)
(1.4857 8.55114e-08 0)
(1.49336 -9.90877e-08 0)
(1.49336 -5.99781e-08 0)
(1.49336 9.89695e-08 0)
(1.49336 5.99042e-08 0)
(1.49735 -3.40604e-08 0)
(1.49735 -2.05365e-08 0)
(1.49735 3.41055e-08 0)
(1.49735 2.05735e-08 0)
)
;

boundaryField
{
    inlet
    {
        type            cyclic;
    }
    outlet
    {
        type            cyclic;
    }
    fixedWalls-bottom
    {
        type            noSlip;
    }
    fixedWalls-top
    {
        type            symmetry;
    }
    frontAndBack
    {
        type            empty;
    }
}


// ************************************************************************* //
