/*--------------------------------*- C++ -*----------------------------------*\
  =========                 |
  \\      /  F ield         | OpenFOAM: The Open Source CFD Toolbox
   \\    /   O peration     | Website:  https://openfoam.org
    \\  /    A nd           | Version:  10
     \\/     M anipulation  |
\*---------------------------------------------------------------------------*/
FoamFile
{
    format      ascii;
    class       surfaceScalarField;
    location    "5000";
    object      phi;
}
// * * * * * * * * * * * * * * * * * * * * * * * * * * * * * * * * * * * * * //

dimensions      [0 3 -1 0 0 0 0];

internalField   nonuniform List<scalar> 
696
(
6.38616e-05
1.51024e-17
6.38616e-05
-1.34347e-19
6.38616e-05
-6.90159e-20
1.59641e-19
0.000194598
1.53523e-17
0.000194598
-5.18429e-19
0.000194598
-2.40652e-19
5.77382e-19
0.000330238
1.55666e-17
0.000330238
-1.20591e-18
0.000330238
-4.61835e-19
1.33699e-18
0.000470911
1.59781e-17
0.000470911
-2.16004e-18
0.000470911
-7.87386e-19
2.33223e-18
0.000616747
1.61498e-17
0.000616747
-3.34214e-18
0.000616747
-1.25829e-18
3.65507e-18
0.000767882
1.66911e-17
0.000767882
-5.20682e-18
0.000767882
-1.6579e-18
5.65275e-18
0.000924451
1.74571e-17
0.000924451
-7.48693e-18
0.000924451
-2.29506e-18
7.85572e-18
0.00108659
1.80574e-17
0.00108659
-1.03586e-17
0.00108659
-2.65e-18
1.0847e-17
0.00125445
1.89272e-17
0.00125445
-1.31415e-17
0.00125445
-3.77445e-18
1.35776e-17
0.00142816
2.0413e-17
0.00142816
-1.67609e-17
0.00142816
-5.24519e-18
1.75295e-17
0.00160787
2.2359e-17
0.00160787
-2.06368e-17
0.00160787
-7.41466e-18
2.16186e-17
0.00179374
2.46435e-17
0.00179374
-2.52159e-17
0.00179374
-9.71795e-18
2.62969e-17
0.0019859
2.89153e-17
0.0019859
-2.94285e-17
0.0019859
-1.3536e-17
3.03392e-17
0.00218452
3.32805e-17
0.00218452
-3.38552e-17
0.00218452
-1.75683e-17
3.40566e-17
0.00238975
3.86035e-17
0.00238975
-3.74391e-17
0.00238975
-2.26264e-17
3.73275e-17
0.00260173
4.51208e-17
0.00260173
-4.08871e-17
0.00260173
-2.86547e-17
4.07147e-17
0.00282065
5.1186e-17
0.00282065
-4.49068e-17
0.00282065
-3.47702e-17
4.43372e-17
0.00304664
5.64939e-17
0.00304664
-4.85864e-17
0.00304664
-4.0343e-17
4.855e-17
0.00327988
6.27747e-17
0.00327988
-5.15994e-17
0.00327988
-4.68945e-17
5.1556e-17
0.00352053
6.93527e-17
0.00352053
-5.56886e-17
0.00352053
-5.31391e-17
5.58474e-17
0.00376876
7.73973e-17
0.00376876
-6.01509e-17
0.00376876
-6.08627e-17
5.98232e-17
0.00402473
8.40556e-17
0.00402473
-6.4689e-17
0.00402473
-6.83471e-17
6.49616e-17
0.00428862
9.01868e-17
0.00428862
-7.11616e-17
0.00428862
-7.4938e-17
7.13872e-17
0.0045606
9.72268e-17
0.0045606
-7.65685e-17
0.0045606
-8.17844e-17
7.66186e-17
0.00484084
1.03354e-16
0.00484084
-8.09638e-17
0.00484084
-8.75329e-17
8.09541e-17
0.00512951
1.08606e-16
0.00512951
-8.54814e-17
0.00512951
-9.31994e-17
8.62767e-17
0.00542679
1.123e-16
0.00542679
-9.09967e-17
0.00542679
-9.74585e-17
9.19201e-17
0.00573286
1.16134e-16
0.00573286
-9.63016e-17
0.00573286
-1.00651e-16
9.69954e-17
0.00604789
1.17783e-16
0.00604789
-1.02372e-16
0.00604789
-1.02965e-16
1.02987e-16
0.00637206
1.18678e-16
0.00637206
-1.0887e-16
0.00637206
-1.04578e-16
1.10934e-16
0.00670556
1.20768e-16
0.00670556
-1.13943e-16
0.00670556
-1.09042e-16
1.17656e-16
0.00704855
1.24543e-16
0.00704855
-1.18943e-16
0.00704855
-1.11175e-16
1.22171e-16
0.00740122
1.28365e-16
0.00740122
-1.25625e-16
0.00740122
-1.14735e-16
1.2784e-16
0.00776375
1.2928e-16
0.00776375
-1.29406e-16
0.00776375
-1.16786e-16
1.31999e-16
0.00813631
1.31414e-16
0.00813631
-1.31043e-16
0.00813631
-1.18423e-16
1.31104e-16
0.00851909
1.33917e-16
0.00851909
-1.33229e-16
0.00851909
-1.17465e-16
1.31077e-16
0.00891226
1.32691e-16
0.00891226
-1.3351e-16
0.00891226
-1.16645e-16
1.32351e-16
0.009316
1.3233e-16
0.009316
-1.34167e-16
0.009316
-1.16944e-16
1.32552e-16
0.00973048
1.29547e-16
0.00973048
-1.343e-16
0.00973048
-1.13289e-16
1.31416e-16
0.0101559
1.27395e-16
0.0101559
-1.35216e-16
0.0101559
-1.12742e-16
1.33647e-16
0.0105924
1.26012e-16
0.0105924
-1.3171e-16
0.0105924
-1.10353e-16
1.29393e-16
0.0110401
1.19648e-16
0.0110401
-1.27177e-16
0.0110401
-1.05516e-16
1.25327e-16
0.0114992
1.14162e-16
0.0114992
-1.20495e-16
0.0114992
-9.61301e-17
1.163e-16
0.01197
1.05789e-16
0.01197
-1.12557e-16
0.01197
-8.89922e-17
1.07962e-16
0.0124524
1.02118e-16
0.0124524
-1.05903e-16
0.0124524
-8.0665e-17
9.75434e-17
0.0129468
9.54431e-17
0.0129468
-9.7028e-17
0.0129468
-7.41813e-17
9.03366e-17
0.0134532
8.93449e-17
0.0134532
-8.21418e-17
0.0134532
-6.88151e-17
7.41667e-17
0.0139718
8.02494e-17
0.0139718
-6.71147e-17
0.0139718
-6.12197e-17
6.05885e-17
0.0145027
7.69745e-17
0.0145027
-5.0745e-17
0.0145027
-5.71212e-17
4.34905e-17
0.015046
7.20679e-17
0.015046
-2.82538e-17
0.015046
-5.21703e-17
2.05327e-17
0.0156019
6.79065e-17
0.0156019
-5.05692e-18
0.0156019
-4.85425e-17
-2.04042e-18
0.0161705
5.75225e-17
0.0161705
1.79396e-17
0.0161705
-4.04006e-17
-2.15791e-17
0.0167519
5.60488e-17
0.0167519
3.87263e-17
0.0167519
-3.92518e-17
-4.06632e-17
0.0173462
5.1775e-17
0.0173462
6.62329e-17
0.0173462
-3.96944e-17
-6.61304e-17
0.0179534
4.48881e-17
0.0179534
8.47424e-17
0.0179534
-3.94589e-17
-8.1216e-17
0.0185737
4.87296e-17
0.0185737
9.77486e-17
0.0185737
-4.25853e-17
-9.36489e-17
0.0192071
4.96647e-17
0.0192071
1.03019e-16
0.0192071
-4.58284e-17
-9.82569e-17
0.0198537
5.78665e-17
0.0198537
1.0004e-16
0.0198537
-4.89221e-17
-1.03207e-16
0.0205134
6.65106e-17
0.0205134
1.02095e-16
0.0205134
-6.1039e-17
-9.89283e-17
0.0211864
6.98658e-17
0.0211864
9.95123e-17
0.0211864
-6.54119e-17
-9.82181e-17
0.0218725
7.57254e-17
0.0218725
1.05826e-16
0.0218725
-7.34783e-17
-1.02464e-16
0.0225719
8.7257e-17
0.0225719
1.05329e-16
0.0225719
-8.20271e-17
-1.00448e-16
0.0232844
9.3451e-17
0.0232844
9.30084e-17
0.0232844
-8.72216e-17
-8.9168e-17
0.02401
1.00076e-16
0.02401
8.1703e-17
0.02401
-8.67212e-17
-8.64426e-17
0.0247487
1.07914e-16
0.0247487
6.1863e-17
0.0247487
-8.81819e-17
-6.96736e-17
0.0255003
1.16354e-16
0.0255003
6.0789e-17
0.0255003
-9.90362e-17
-6.74615e-17
0.0262647
1.16046e-16
0.0262647
5.88279e-17
0.0262647
-9.63141e-17
-6.79646e-17
0.0270417
1.08858e-16
0.0270417
5.88983e-17
0.0270417
-8.5202e-17
-7.56232e-17
0.0278312
1.02599e-16
0.0278312
7.30356e-17
0.0278312
-7.90428e-17
-8.64757e-17
0.0286329
9.10744e-17
0.0286329
8.8409e-17
0.0286329
-6.62599e-17
-1.01435e-16
0.0294467
6.62878e-17
0.0294467
9.82589e-17
0.0294467
-5.15035e-17
-1.02715e-16
0.0302722
4.56628e-17
0.0302722
1.0634e-16
0.0302722
-4.03203e-17
-1.01137e-16
0.0311091
3.30479e-17
0.0311091
1.12008e-16
0.0311091
-3.02506e-17
-1.08215e-16
0.0319571
2.03214e-17
0.0319571
1.23317e-16
0.0319571
-2.45767e-17
-1.15995e-16
0.0328157
3.82732e-18
0.0328157
1.40552e-16
0.0328157
-8.52755e-18
-1.31111e-16
0.0336845
-3.85662e-18
0.0336845
1.48126e-16
0.0336845
6.84579e-18
-1.45679e-16
0.0345631
-2.40942e-17
0.0345631
1.49889e-16
0.0345631
3.28756e-17
-1.57299e-16
0.0354509
-3.71534e-17
0.0354509
1.44202e-16
0.0354509
4.70904e-17
-1.54321e-16
0.0363473
-3.40814e-17
0.0363473
1.39377e-16
0.0363473
4.7452e-17
-1.566e-16
0.0372517
-4.61641e-17
0.0372517
1.41248e-16
0.0372517
4.83268e-17
-1.52087e-16
0.0381633
-4.16041e-17
0.0381633
1.34149e-16
0.0381633
5.17882e-17
-1.50449e-16
0.0390814
-3.35918e-17
0.0390814
1.23372e-16
0.0390814
3.64876e-17
-1.33063e-16
0.0400052
-2.30813e-17
0.0400052
1.01468e-16
0.0400052
3.7214e-17
-1.1889e-16
0.0409337
-9.88094e-18
0.0409337
8.44627e-17
0.0409337
2.3045e-17
-1.02191e-16
0.041866
-3.05991e-19
0.041866
7.19646e-17
0.041866
7.70598e-18
-8.44231e-17
0.042801
1.33658e-17
0.042801
5.64328e-17
0.042801
-3.70676e-18
-6.66618e-17
0.0437377
1.7693e-17
0.0437377
5.41994e-17
0.0437377
-4.80357e-18
-6.97418e-17
0.0446747
2.98786e-17
0.0446747
5.40344e-17
0.0446747
-2.29284e-17
-6.25127e-17
0.0456107
3.88063e-17
0.0456107
4.43034e-17
0.0456107
-2.89447e-17
-5.62687e-17
0.0465444
4.98445e-17
0.0465444
3.81944e-17
0.0465444
-4.00826e-17
-5.50823e-17
0.0474742
5.02349e-17
0.0474742
1.81002e-17
0.0474742
-3.96376e-17
-3.52363e-17
0.0483985
5.61113e-17
0.0483985
9.48121e-18
0.0483985
-5.1147e-17
-2.0418e-17
0.0493155
6.77905e-17
0.0493155
-9.54411e-18
0.0493155
-5.07969e-17
-9.08037e-18
0.0502234
7.21396e-17
0.0502234
-1.7975e-17
0.0502234
-5.24449e-17
-1.23765e-17
0.0511203
6.61618e-17
0.0511203
-2.26002e-17
0.0511203
-5.60064e-17
3.25475e-18
0.0520039
6.89255e-17
0.0520039
-2.70352e-17
0.0520039
-4.8172e-17
4.69067e-18
0.0528721
6.10163e-17
0.0528721
-3.09491e-17
0.0528721
-4.67443e-17
1.21896e-17
0.0537224
5.20825e-17
0.0537224
-2.25257e-17
0.0537224
-4.53432e-17
1.32477e-17
0.0545523
2.54045e-17
0.0545523
-2.34597e-17
0.0545523
-2.38295e-17
1.67128e-17
0.055359
0.055359
0.055359
)
;

boundaryField
{
    inlet
    {
        type            cyclic;
        value           nonuniform List<scalar> 
100
(
-0.055359
-0.0545523
-0.0537224
-0.0528721
-0.0520039
-0.0511203
-0.0502234
-0.0493155
-0.0483985
-0.0474742
-0.0465444
-0.0456107
-0.0446747
-0.0437377
-0.042801
-0.041866
-0.0409337
-0.0400052
-0.0390814
-0.0381633
-0.0372517
-0.0363473
-0.0354509
-0.0345631
-0.0336845
-0.0328157
-0.0319571
-0.0311091
-0.0302722
-0.0294467
-0.0286329
-0.0278312
-0.0270417
-0.0262647
-0.0255003
-0.0247487
-0.02401
-0.0232844
-0.0225719
-0.0218725
-0.0211864
-0.0205134
-0.0198537
-0.0192071
-0.0185737
-0.0179534
-0.0173462
-0.0167519
-0.0161705
-0.0156019
-0.015046
-0.0145027
-0.0139718
-0.0134532
-0.0129468
-0.0124524
-0.01197
-0.0114992
-0.0110401
-0.0105924
-0.0101559
-0.00973048
-0.009316
-0.00891226
-0.00851909
-0.00813631
-0.00776375
-0.00740122
-0.00704855
-0.00670556
-0.00637206
-0.00604789
-0.00573286
-0.00542679
-0.00512951
-0.00484084
-0.0045606
-0.00428862
-0.00402473
-0.00376876
-0.00352053
-0.00327988
-0.00304664
-0.00282065
-0.00260173
-0.00238975
-0.00218452
-0.0019859
-0.00179374
-0.00160787
-0.00142816
-0.00125445
-0.00108659
-0.000924451
-0.000767882
-0.000616747
-0.000470911
-0.000330238
-0.000194598
-6.38616e-05
)
;
    }
    outlet
    {
        type            cyclic;
        value           nonuniform List<scalar> 
100
(
0.055359
0.0545523
0.0537224
0.0528721
0.0520039
0.0511203
0.0502234
0.0493155
0.0483985
0.0474742
0.0465444
0.0456107
0.0446747
0.0437377
0.042801
0.041866
0.0409337
0.0400052
0.0390814
0.0381633
0.0372517
0.0363473
0.0354509
0.0345631
0.0336845
0.0328157
0.0319571
0.0311091
0.0302722
0.0294467
0.0286329
0.0278312
0.0270417
0.0262647
0.0255003
0.0247487
0.02401
0.0232844
0.0225719
0.0218725
0.0211864
0.0205134
0.0198537
0.0192071
0.0185737
0.0179534
0.0173462
0.0167519
0.0161705
0.0156019
0.015046
0.0145027
0.0139718
0.0134532
0.0129468
0.0124524
0.01197
0.0114992
0.0110401
0.0105924
0.0101559
0.00973048
0.009316
0.00891226
0.00851909
0.00813631
0.00776375
0.00740122
0.00704855
0.00670556
0.00637206
0.00604789
0.00573286
0.00542679
0.00512951
0.00484084
0.0045606
0.00428862
0.00402473
0.00376876
0.00352053
0.00327988
0.00304664
0.00282065
0.00260173
0.00238975
0.00218452
0.0019859
0.00179374
0.00160787
0.00142816
0.00125445
0.00108659
0.000924451
0.000767882
0.000616747
0.000470911
0.000330238
0.000194598
6.38616e-05
)
;
    }
    fixedWalls-bottom
    {
        type            calculated;
        value           uniform 0;
    }
    fixedWalls-top
    {
        type            symmetry;
        value           uniform 0;
    }
    frontAndBack
    {
        type            empty;
        value           nonuniform List<scalar> 0();
    }
}


// ************************************************************************* //
