/*--------------------------------*- C++ -*----------------------------------*\
  =========                 |
  \\      /  F ield         | OpenFOAM: The Open Source CFD Toolbox
   \\    /   O peration     | Website:  https://openfoam.org
    \\  /    A nd           | Version:  10
     \\/     M anipulation  |
\*---------------------------------------------------------------------------*/
FoamFile
{
    format      ascii;
    class       volScalarField;
    location    "5000";
    object      k;
}
// * * * * * * * * * * * * * * * * * * * * * * * * * * * * * * * * * * * * * //

dimensions      [0 2 -2 0 0 0 0];

internalField   nonuniform List<scalar> 
400
(
5.20759e-06
5.20779e-06
5.20741e-06
5.20743e-06
0.000155511
0.000155517
0.000155506
0.000155506
0.00102246
0.00102249
0.00102242
0.00102242
0.00272534
0.00272538
0.00272521
0.00272521
0.00429556
0.00429553
0.00429528
0.00429531
0.00539011
0.00539001
0.00538973
0.00538977
0.00613327
0.00613313
0.00613283
0.00613289
0.00663818
0.00663801
0.00663772
0.00663781
0.0069862
0.00698602
0.00698575
0.00698586
0.00722996
0.00722979
0.00722955
0.00722967
0.0074029
0.00740274
0.00740253
0.00740268
0.00752642
0.00752629
0.00752612
0.00752629
0.00761454
0.00761443
0.0076143
0.00761449
0.00767655
0.00767646
0.00767637
0.00767656
0.00771871
0.00771863
0.00771857
0.00771876
0.00774533
0.00774526
0.00774523
0.00774542
0.00775943
0.00775936
0.00775935
0.00775954
0.00776327
0.0077632
0.0077632
0.00776339
0.00775859
0.00775853
0.00775854
0.00775872
0.00774676
0.0077467
0.00774672
0.0077469
0.00772886
0.0077288
0.00772883
0.00772899
0.00770575
0.00770569
0.00770572
0.00770587
0.00767813
0.00767808
0.0076781
0.00767824
0.00764659
0.00764654
0.00764657
0.00764669
0.00761161
0.00761157
0.00761159
0.00761169
0.0075736
0.00757357
0.00757359
0.00757367
0.00753291
0.00753288
0.0075329
0.00753297
0.0074898
0.00748978
0.0074898
0.00748984
0.00744445
0.00744444
0.00744446
0.00744448
0.007397
0.007397
0.00739702
0.00739701
0.00734753
0.00734754
0.00734756
0.00734753
0.00729613
0.00729614
0.00729617
0.00729611
0.00724285
0.00724288
0.00724291
0.00724283
0.00718777
0.00718781
0.00718783
0.00718774
0.00713092
0.00713097
0.007131
0.00713089
0.00707235
0.0070724
0.00707244
0.00707231
0.00701209
0.00701215
0.00701219
0.00701205
0.00695017
0.00695024
0.00695028
0.00695013
0.00688662
0.00688669
0.00688674
0.00688658
0.00682146
0.00682153
0.00682158
0.00682142
0.00675472
0.00675479
0.00675485
0.00675468
0.00668642
0.00668649
0.00668655
0.00668639
0.00661662
0.00661668
0.00661676
0.00661658
0.00654537
0.00654543
0.00654552
0.00654534
0.00647279
0.00647285
0.00647294
0.00647276
0.006399
0.00639906
0.00639915
0.00639897
0.00632421
0.00632427
0.00632436
0.00632418
0.00624866
0.00624872
0.0062488
0.00624863
0.00617262
0.00617267
0.00617275
0.00617259
0.00609637
0.00609641
0.00609648
0.00609634
0.00602014
0.00602017
0.00602024
0.00602014
0.00594404
0.00594405
0.00594412
0.00594406
0.0058679
0.00586791
0.00586797
0.00586792
0.00579153
0.00579154
0.0057916
0.00579153
0.00571488
0.00571489
0.00571493
0.00571486
0.00563794
0.00563795
0.00563799
0.00563792
0.00556073
0.00556074
0.00556078
0.0055607
0.00548325
0.00548326
0.0054833
0.00548321
0.0054055
0.00540552
0.00540556
0.00540547
0.0053275
0.00532753
0.00532757
0.00532747
0.00524925
0.00524928
0.00524932
0.00524922
0.00517077
0.0051708
0.00517084
0.00517074
0.00509206
0.00509209
0.00509213
0.00509204
0.00501315
0.00501317
0.00501322
0.00501313
0.00493405
0.00493408
0.00493413
0.00493404
0.00485482
0.00485484
0.00485488
0.0048548
0.00477546
0.00477548
0.00477553
0.00477545
0.00469604
0.00469605
0.0046961
0.00469603
0.00461659
0.0046166
0.00461665
0.00461658
0.00453717
0.00453718
0.00453722
0.00453716
0.00445783
0.00445785
0.00445788
0.00445783
0.00437866
0.00437867
0.00437871
0.00437866
0.00429972
0.00429973
0.00429976
0.00429972
0.00422109
0.0042211
0.00422113
0.00422109
0.00414287
0.00414287
0.0041429
0.00414287
0.00406515
0.00406516
0.00406518
0.00406516
0.00398806
0.00398807
0.00398809
0.00398806
0.00391171
0.00391171
0.00391173
0.00391172
0.00383623
0.00383623
0.00383625
0.00383624
0.00376178
0.00376177
0.00376178
0.00376179
0.00368849
0.00368849
0.0036885
0.00368851
0.00361656
0.00361655
0.00361656
0.00361658
0.00354615
0.00354614
0.00354615
0.00354617
0.00347746
0.00347746
0.00347747
0.00347749
0.00341071
0.0034107
0.00341071
0.00341074
0.0033461
0.0033461
0.00334611
0.00334614
0.00328388
0.00328389
0.00328389
0.00328392
0.0032243
0.0032243
0.0032243
0.00322434
0.0031676
0.0031676
0.0031676
0.00316764
0.00311405
0.00311405
0.00311405
0.00311409
0.00306393
0.00306393
0.00306393
0.00306397
0.00301751
0.00301751
0.00301751
0.00301756
0.00297509
0.00297508
0.00297509
0.00297514
0.00293695
0.00293695
0.00293695
0.002937
0.00290339
0.00290339
0.00290339
0.00290344
0.00287471
0.0028747
0.0028747
0.00287475
0.00285118
0.00285118
0.00285118
0.00285123
0.00283312
0.00283312
0.00283312
0.00283317
0.0028208
0.0028208
0.0028208
0.00282085
0.0028145
0.00281451
0.00281451
0.00281456
)
;

boundaryField
{
    inlet
    {
        type            cyclic;
    }
    outlet
    {
        type            cyclic;
    }
    fixedWalls-bottom
    {
        type            kqRWallFunction;
        value           nonuniform List<scalar> 4(5.20759e-06 5.20779e-06 5.20741e-06 5.20743e-06);
    }
    fixedWalls-top
    {
        type            symmetry;
    }
    frontAndBack
    {
        type            empty;
    }
}


// ************************************************************************* //
