/*--------------------------------*- C++ -*----------------------------------*\
  =========                 |
  \\      /  F ield         | OpenFOAM: The Open Source CFD Toolbox
   \\    /   O peration     | Website:  https://openfoam.org
    \\  /    A nd           | Version:  10
     \\/     M anipulation  |
\*---------------------------------------------------------------------------*/
FoamFile
{
    format      ascii;
    class       volScalarField;
    location    "5000";
    object      nut;
}
// * * * * * * * * * * * * * * * * * * * * * * * * * * * * * * * * * * * * * //

dimensions      [0 2 -1 0 0 0 0];

internalField   nonuniform List<scalar> 
400
(
3.15782e-09
3.15794e-09
3.15771e-09
3.15772e-09
5.3581e-07
5.35832e-07
5.35794e-07
5.35796e-07
9.16073e-06
9.16119e-06
9.16057e-06
9.16061e-06
4.21845e-05
4.21861e-05
4.21831e-05
4.21833e-05
9.64376e-05
9.64376e-05
9.64313e-05
9.64313e-05
0.000158916
0.000158914
0.000158903
0.000158903
0.000229981
0.000229977
0.000229962
0.000229961
0.000307782
0.000307777
0.00030776
0.000307757
0.000390729
0.000390725
0.000390706
0.000390701
0.000477491
0.000477488
0.000477469
0.000477461
0.000567054
0.000567053
0.000567033
0.000567022
0.000658617
0.000658614
0.000658592
0.000658582
0.000751391
0.00075138
0.00075136
0.000751366
0.000844276
0.00084425
0.000844248
0.000844323
0.000936703
0.000936686
0.000936691
0.000936787
0.00103001
0.00103
0.00103001
0.00103013
0.00112415
0.00112413
0.00112416
0.00112429
0.00121909
0.00121908
0.00121911
0.00121926
0.00131486
0.00131485
0.00131488
0.00131504
0.00141146
0.00141145
0.00141148
0.00141165
0.00150893
0.00150892
0.00150896
0.00150913
0.00160732
0.00160732
0.00160735
0.00160752
0.00170668
0.00170668
0.00170672
0.00170687
0.00180706
0.00180706
0.00180711
0.00180724
0.00190851
0.00190851
0.00190857
0.00190865
0.00201105
0.00201106
0.00201113
0.00201116
0.00211474
0.00211476
0.00211482
0.0021148
0.00221769
0.00221771
0.0022177
0.00221761
0.00231959
0.00231963
0.00231961
0.00231949
0.00242109
0.00242114
0.00242113
0.00242102
0.00252258
0.00252263
0.00252265
0.00252255
0.00262428
0.00262432
0.00262435
0.00262427
0.00272627
0.00272631
0.00272635
0.00272628
0.00282857
0.0028286
0.00282864
0.00282858
0.00293112
0.00293114
0.00293118
0.00293112
0.00303382
0.00303385
0.00303388
0.00303382
0.00313658
0.0031366
0.00313663
0.00313657
0.00323928
0.00323931
0.00323934
0.00323927
0.00334187
0.0033419
0.00334194
0.00334186
0.00344436
0.00344439
0.00344444
0.00344435
0.00354689
0.00354693
0.00354699
0.00354689
0.0036498
0.00364986
0.00364993
0.00364981
0.00375372
0.00375379
0.00375386
0.00375371
0.00385958
0.00385966
0.00385972
0.00385954
0.0039687
0.00396877
0.00396878
0.00396861
0.00408272
0.00408274
0.00408268
0.00408257
0.00420344
0.00420335
0.00420321
0.0042033
0.00433246
0.00433221
0.00433203
0.00433248
0.00447049
0.00447009
0.00446994
0.00447089
0.00461633
0.00461587
0.00461586
0.00461729
0.00476527
0.00476495
0.00476512
0.00476665
0.00490715
0.00490706
0.00490728
0.00490783
0.00502406
0.00502391
0.00502371
0.00502121
0.00512815
0.00512798
0.00512776
0.00512529
0.0052299
0.00522976
0.0052295
0.00522707
0.00532882
0.00532886
0.00532847
0.00532612
0.00542478
0.00542487
0.00542431
0.00542208
0.00551724
0.00551733
0.00551679
0.00551458
0.00560592
0.00560603
0.00560555
0.00560335
0.00569066
0.00569075
0.00569034
0.00568819
0.00577132
0.00577138
0.00577104
0.00576896
0.00584784
0.00584783
0.0058476
0.0058456
0.00592025
0.00592012
0.00592002
0.0059181
0.00598864
0.00598836
0.00598832
0.00598651
0.00605285
0.0060526
0.00605256
0.00605088
0.00611307
0.00611287
0.00611284
0.00611128
0.00616939
0.00616924
0.0061692
0.00616777
0.00622187
0.00622175
0.00622171
0.00622042
0.00627056
0.00627047
0.00627043
0.00626929
0.00631552
0.00631546
0.00631542
0.00631443
0.0063568
0.00635679
0.00635676
0.00635592
0.00639448
0.00639453
0.0063945
0.00639382
0.00642865
0.00642876
0.00642873
0.00642821
0.00645941
0.00645958
0.00645955
0.00645921
0.0064869
0.00648709
0.00648705
0.00648691
0.00651127
0.00651139
0.00651139
0.00651146
0.0065326
0.00653265
0.00653278
0.00653301
0.00655107
0.00655116
0.00655135
0.0065517
0.00656689
0.00656717
0.00656725
0.00656775
0.00658028
0.00658062
0.00658071
0.00658139
0.00659149
0.00659179
0.00659196
0.00659283
0.00660071
0.00660089
0.00660125
0.00660228
0.00660815
0.00660866
0.00660872
0.00660999
0.00661413
0.00661472
0.00661475
0.00661622
0.0066189
0.00661951
0.00661957
0.0066212
0.00662272
0.00662326
0.00662342
0.00662519
0.00662583
0.00662614
0.00662655
0.00662841
0.00662846
0.00662823
0.00662916
0.00663112
0.0066307
0.00663042
0.00663146
0.00663343
0.00663278
0.00663252
0.00663346
0.00663561
0.00663483
0.00663475
0.00663536
0.00663777
0.00663695
0.00663658
0.00663782
0.00663989
0.0066392
0.00663885
0.00664003
0.00664223
0.00664161
0.00664143
0.00664233
0.00664475
0.00664413
0.00664466
0.00664485
0.00664733
0.00664678
0.00664738
0.0066475
0.00665002
0.00664935
0.00664992
0.00665012
0.0066527
0.00665163
0.00665203
0.00665245
0.00665528
0.00665321
0.00665474
0.00665408
0.0066576
0.00665462
0.00665642
0.00665579
0.0066593
)
;

boundaryField
{
    inlet
    {
        type            cyclic;
    }
    outlet
    {
        type            cyclic;
    }
    fixedWalls-bottom
    {
        type            nutkWallFunction;
        Cmu             0.09;
        kappa           0.41;
        E               9.8;
        value           uniform 0;
    }
    fixedWalls-top
    {
        type            symmetry;
    }
    frontAndBack
    {
        type            empty;
    }
}


// ************************************************************************* //
