/*--------------------------------*- C++ -*----------------------------------*\
  =========                 |
  \\      /  F ield         | OpenFOAM: The Open Source CFD Toolbox
   \\    /   O peration     | Website:  https://openfoam.org
    \\  /    A nd           | Version:  10
     \\/     M anipulation  |
\*---------------------------------------------------------------------------*/
FoamFile
{
    format      ascii;
    class       volScalarField;
    location    "5000";
    object      omega;
}
// * * * * * * * * * * * * * * * * * * * * * * * * * * * * * * * * * * * * * //

dimensions      [0 0 -1 0 0 0 0];

internalField   nonuniform List<scalar> 
400
(
1649.11
1649.11
1649.11
1649.11
290.235
290.234
290.234
290.234
111.613
111.611
111.611
111.611
64.6052
64.6038
64.6042
64.604
44.3695
44.3692
44.37
44.3699
33.0558
33.0566
33.0573
33.0572
25.8831
25.8844
25.8849
25.8848
20.9975
20.9989
20.9992
20.9991
17.5035
17.5048
17.505
17.5049
14.9097
14.9107
14.9108
14.9107
12.9247
12.9254
12.9254
12.9253
11.3662
11.3668
11.3667
11.3664
10.1157
10.116
10.116
10.1155
9.09247
9.09264
9.09255
9.09197
8.24029
8.24036
8.24025
8.23961
7.51967
7.51968
7.51957
7.51891
6.90249
6.90251
6.90238
6.90173
6.36806
6.36806
6.36794
6.36731
5.90072
5.90071
5.90059
5.9
5.48849
5.48848
5.48837
5.48783
5.12208
5.12206
5.12197
5.12149
4.79415
4.79413
4.79404
4.79364
4.49886
4.49884
4.49875
4.49843
4.2315
4.23148
4.23139
4.23115
3.98825
3.98822
3.98812
3.98799
3.76599
3.76595
3.76583
3.76582
3.5621
3.56206
3.56196
3.56202
3.37438
3.37433
3.37426
3.37438
3.20096
3.20092
3.20088
3.20106
3.04029
3.04027
3.04027
3.04049
2.89106
2.89106
2.89108
2.89135
2.7521
2.75212
2.75214
2.75248
2.62241
2.62238
2.62247
2.62286
2.50109
2.50106
2.50118
2.50163
2.38742
2.38739
2.38754
2.38804
2.28077
2.28074
2.28091
2.28147
2.18059
2.18057
2.18074
2.18136
2.08639
2.08638
2.08656
2.08722
1.99775
1.99773
1.99793
1.99861
1.91426
1.91425
1.91444
1.91515
1.83556
1.83555
1.83575
1.83648
1.76133
1.76132
1.7615
1.76226
1.69126
1.69125
1.69141
1.69218
1.62507
1.62508
1.62519
1.62597
1.56249
1.56249
1.56259
1.56336
1.50327
1.50329
1.50337
1.50413
1.44722
1.44726
1.44734
1.44808
1.39419
1.39422
1.3943
1.39501
1.344
1.34402
1.34409
1.34479
1.29647
1.2965
1.29657
1.29724
1.2514
1.25143
1.2515
1.25214
1.2086
1.20864
1.2087
1.20931
1.16796
1.168
1.16806
1.16863
1.12936
1.1294
1.12946
1.12999
1.09273
1.09276
1.09283
1.09332
1.05801
1.058
1.05809
1.05854
1.02506
1.02505
1.02516
1.02557
0.993838
0.993825
0.99393
0.994313
0.964249
0.964235
0.964323
0.964686
0.936183
0.936174
0.936247
0.936585
0.909541
0.909537
0.909597
0.909909
0.884218
0.884225
0.884267
0.884553
0.860108
0.860132
0.860154
0.860417
0.837109
0.837153
0.837167
0.837404
0.815162
0.8152
0.815212
0.815425
0.794169
0.794199
0.794211
0.794401
0.774057
0.77408
0.774092
0.77426
0.754763
0.75478
0.754793
0.754938
0.736232
0.736245
0.736257
0.736381
0.718416
0.718424
0.718435
0.718539
0.70127
0.701273
0.701283
0.701367
0.684755
0.684752
0.684761
0.684827
0.668836
0.668826
0.668835
0.668882
0.653478
0.653463
0.653471
0.6535
0.638652
0.638634
0.638642
0.63865
0.624326
0.624316
0.624319
0.624308
0.610486
0.610482
0.610474
0.610449
0.59711
0.597102
0.597087
0.597054
0.584179
0.584153
0.584148
0.584103
0.571674
0.571645
0.571638
0.571579
0.559584
0.559558
0.559545
0.559473
0.547904
0.547889
0.54786
0.547777
0.536632
0.53659
0.536586
0.536487
0.525763
0.525715
0.525714
0.525601
0.515298
0.51525
0.515247
0.515124
0.505246
0.505205
0.505194
0.505063
0.495618
0.495596
0.495566
0.495432
0.486432
0.48645
0.486382
0.486244
0.477717
0.477737
0.477662
0.477527
0.469494
0.469512
0.469446
0.4693
0.461794
0.4618
0.461758
0.461597
0.454653
0.454678
0.454594
0.454459
0.448109
0.448132
0.448053
0.447912
0.442204
0.442216
0.442156
0.442003
0.436986
0.436951
0.436939
0.436783
0.432496
0.432456
0.432449
0.432292
0.428791
0.428755
0.428742
0.428583
0.425928
0.425903
0.425876
0.425703
0.423975
0.423879
0.423921
0.423704
0.42294
0.422826
0.422866
0.422651
)
;

boundaryField
{
    inlet
    {
        type            cyclic;
    }
    outlet
    {
        type            cyclic;
    }
    fixedWalls-bottom
    {
        beta1           0.075;
        blended         0;
        type            omegaWallFunction;
        value           uniform 1649.11;
    }
    fixedWalls-top
    {
        type            symmetry;
    }
    frontAndBack
    {
        type            empty;
    }
}


// ************************************************************************* //
