/*--------------------------------*- C++ -*----------------------------------*\
  =========                 |
  \\      /  F ield         | OpenFOAM: The Open Source CFD Toolbox
   \\    /   O peration     | Website:  https://openfoam.org
    \\  /    A nd           | Version:  10
     \\/     M anipulation  |
\*---------------------------------------------------------------------------*/
FoamFile
{
    format      ascii;
    class       volScalarField;
    location    "5000";
    object      p;
}
// * * * * * * * * * * * * * * * * * * * * * * * * * * * * * * * * * * * * * //

dimensions      [0 2 -2 0 0 0 0];

internalField   nonuniform List<scalar> 
400
(
-1.14272e-13
9.5103e-08
-7.59291e-08
-1.71108e-07
-2.24593e-10
9.51563e-08
-7.5705e-08
-1.71162e-07
-5.11941e-10
9.52188e-08
-7.54177e-08
-1.71224e-07
-7.37009e-10
9.51625e-08
-7.51927e-08
-1.71168e-07
-7.56678e-10
9.46767e-08
-7.51731e-08
-1.70682e-07
-4.75522e-10
9.35707e-08
-7.54543e-08
-1.69576e-07
1.12436e-10
9.19693e-08
-7.60424e-08
-1.67974e-07
9.33075e-10
9.01192e-08
-7.6863e-08
-1.66124e-07
1.91122e-09
8.82711e-08
-7.78412e-08
-1.64276e-07
3.03087e-09
8.66009e-08
-7.89609e-08
-1.62606e-07
4.35075e-09
8.51359e-08
-8.02808e-08
-1.61141e-07
5.85371e-09
8.3728e-08
-8.17837e-08
-1.59733e-07
6.97984e-09
8.21861e-08
-8.29099e-08
-1.58191e-07
6.37646e-09
8.05842e-08
-8.23066e-08
-1.56589e-07
3.94383e-09
7.92529e-08
-7.98742e-08
-1.55258e-07
7.05176e-10
7.83077e-08
-7.66357e-08
-1.54313e-07
-3.05911e-09
7.75787e-08
-7.28715e-08
-1.53583e-07
-7.27342e-09
7.69508e-08
-6.86573e-08
-1.52955e-07
-1.18172e-08
7.63874e-08
-6.41136e-08
-1.52392e-07
-1.65539e-08
7.583e-08
-5.9377e-08
-1.51834e-07
-2.13483e-08
7.52336e-08
-5.45827e-08
-1.51237e-07
-2.60725e-08
7.45957e-08
-4.98586e-08
-1.50599e-07
-3.06052e-08
7.39524e-08
-4.53259e-08
-1.49956e-07
-3.48208e-08
7.33698e-08
-4.11103e-08
-1.49373e-07
-3.85712e-08
7.2969e-08
-3.73601e-08
-1.48972e-07
-4.17121e-08
7.28454e-08
-3.42192e-08
-1.48849e-07
-4.40328e-08
7.28338e-08
-3.18986e-08
-1.48837e-07
-4.49175e-08
7.23394e-08
-3.10141e-08
-1.48343e-07
-4.45026e-08
7.13514e-08
-3.14292e-08
-1.47355e-07
-4.38699e-08
7.05084e-08
-3.2062e-08
-1.46512e-07
-4.36415e-08
7.00167e-08
-3.22906e-08
-1.4602e-07
-4.39363e-08
6.97528e-08
-3.1996e-08
-1.45756e-07
-4.46362e-08
6.95403e-08
-3.12962e-08
-1.45543e-07
-4.55645e-08
6.92697e-08
-3.03681e-08
-1.45272e-07
-4.65693e-08
6.89068e-08
-2.93634e-08
-1.4491e-07
-4.75559e-08
6.8467e-08
-2.83768e-08
-1.4447e-07
-4.84931e-08
6.79867e-08
-2.74398e-08
-1.43989e-07
-4.94003e-08
6.75096e-08
-2.65327e-08
-1.43512e-07
-5.03253e-08
6.70838e-08
-2.56079e-08
-1.43086e-07
-5.13121e-08
6.67672e-08
-2.46212e-08
-1.42769e-07
-5.23681e-08
6.66264e-08
-2.35654e-08
-1.42628e-07
-5.34328e-08
6.67177e-08
-2.25009e-08
-1.4272e-07
-5.43698e-08
6.70379e-08
-2.1564e-08
-1.4304e-07
-5.50032e-08
6.74525e-08
-2.09308e-08
-1.43454e-07
-5.52295e-08
6.76277e-08
-2.07046e-08
-1.43629e-07
-5.52136e-08
6.7025e-08
-2.07205e-08
-1.43026e-07
-5.56313e-08
6.50293e-08
-2.03028e-08
-1.41031e-07
-5.78389e-08
6.12618e-08
-1.80953e-08
-1.37263e-07
-6.37512e-08
5.60353e-08
-1.21836e-08
-1.32034e-07
-7.49645e-08
5.06666e-08
-9.71026e-10
-1.26663e-07
-9.03503e-08
4.69932e-08
1.44149e-08
-1.22988e-07
-1.0238e-07
4.54944e-08
2.64447e-08
-1.21494e-07
-9.85734e-08
4.35643e-08
2.26365e-08
-1.19572e-07
-8.21834e-08
3.99451e-08
6.24591e-09
-1.15955e-07
-6.53155e-08
3.60001e-08
-1.06215e-08
-1.12009e-07
-4.95617e-08
3.22952e-08
-2.63747e-08
-1.08302e-07
-3.40328e-08
2.85284e-08
-4.19033e-08
-1.04534e-07
-1.86347e-08
2.45821e-08
-5.73012e-08
-1.00586e-07
-3.797e-09
2.10121e-08
-7.21388e-08
-9.70141e-08
1.01765e-08
1.79845e-08
-8.61123e-08
-9.39848e-08
2.31081e-08
1.5356e-08
-9.9044e-08
-9.13548e-08
3.48124e-08
1.30258e-08
-1.10748e-07
-8.90235e-08
4.51216e-08
1.0836e-08
-1.21058e-07
-8.6833e-08
5.41216e-08
8.44793e-09
-1.30058e-07
-8.44446e-08
6.21008e-08
5.94176e-09
-1.38037e-07
-8.19382e-08
6.92606e-08
3.68765e-09
-1.45197e-07
-7.96841e-08
7.56471e-08
1.7353e-09
-1.51584e-07
-7.77317e-08
8.12409e-08
7.86107e-12
-1.57178e-07
-7.60044e-08
8.60053e-08
-1.56047e-09
-1.61943e-07
-7.44361e-08
8.9929e-08
-2.9652e-09
-1.65867e-07
-7.30316e-08
9.30251e-08
-4.15408e-09
-1.68963e-07
-7.18429e-08
9.53145e-08
-5.07555e-09
-1.71253e-07
-7.09215e-08
9.68171e-08
-5.69765e-09
-1.72755e-07
-7.02996e-08
9.75377e-08
-6.03811e-09
-1.73476e-07
-6.99592e-08
9.74241e-08
-6.22416e-09
-1.73363e-07
-6.97733e-08
9.63223e-08
-6.47005e-09
-1.72261e-07
-6.95276e-08
9.40988e-08
-6.69504e-09
-1.70038e-07
-6.93027e-08
9.10073e-08
-6.58611e-09
-1.66946e-07
-6.94116e-08
8.75974e-08
-6.0657e-09
-1.63537e-07
-6.99319e-08
8.38664e-08
-5.26406e-09
-1.59806e-07
-7.07335e-08
7.93527e-08
-4.30035e-09
-1.55292e-07
-7.16972e-08
7.38574e-08
-3.19419e-09
-1.49797e-07
-7.28032e-08
6.80412e-08
-1.95923e-09
-1.43981e-07
-7.4038e-08
6.23091e-08
-6.25618e-10
-1.38249e-07
-7.53715e-08
5.63147e-08
7.98265e-10
-1.32254e-07
-7.67952e-08
4.99226e-08
2.28388e-09
-1.25863e-07
-7.82807e-08
4.29038e-08
3.75914e-09
-1.18844e-07
-7.97557e-08
3.48615e-08
5.14889e-09
-1.10801e-07
-8.11452e-08
2.62602e-08
6.5019e-09
-1.022e-07
-8.24978e-08
1.79891e-08
7.70729e-09
-9.39292e-08
-8.37027e-08
1.03674e-08
8.5866e-09
-8.63077e-08
-8.45814e-08
3.15186e-09
9.57912e-09
-7.90921e-08
-8.55734e-08
-3.76919e-09
1.07753e-08
-7.21711e-08
-8.67693e-08
-9.92543e-09
1.17469e-08
-6.6015e-08
-8.77409e-08
-1.47302e-08
1.24877e-08
-6.12104e-08
-8.84817e-08
-1.83138e-08
1.31157e-08
-5.76269e-08
-8.91098e-08
-2.12827e-08
1.36547e-08
-5.46582e-08
-8.96487e-08
-2.38037e-08
1.40942e-08
-5.21372e-08
-9.0088e-08
-2.55724e-08
1.44272e-08
-5.03685e-08
-9.04211e-08
-2.6522e-08
1.46789e-08
-4.94189e-08
-9.06729e-08
)
;

boundaryField
{
    inlet
    {
        type            cyclic;
    }
    outlet
    {
        type            cyclic;
    }
    fixedWalls-bottom
    {
        type            zeroGradient;
    }
    fixedWalls-top
    {
        type            symmetry;
    }
    frontAndBack
    {
        type            empty;
    }
}


// ************************************************************************* //
