/*--------------------------------*- C++ -*----------------------------------*\
  =========                 |
  \\      /  F ield         | OpenFOAM: The Open Source CFD Toolbox
   \\    /   O peration     | Website:  https://openfoam.org
    \\  /    A nd           | Version:  10
     \\/     M anipulation  |
\*---------------------------------------------------------------------------*/
FoamFile
{
    format      ascii;
    class       surfaceScalarField;
    location    "5000";
    object      phi;
}
// * * * * * * * * * * * * * * * * * * * * * * * * * * * * * * * * * * * * * //

dimensions      [0 3 -1 0 0 0 0];

internalField   nonuniform List<scalar> 
696
(
0.000558
-4.63802e-09
0.000558
7.0793e-10
0.000557995
4.64899e-09
-7.08038e-10
0.00169757
-1.85726e-08
0.00169757
3.59859e-09
0.00169755
1.85831e-08
-3.59892e-09
0.00283385
-4.05362e-08
0.00283385
9.89322e-09
0.00283382
4.05461e-08
-9.89373e-09
0.00383772
-6.52245e-08
0.00383771
1.97588e-08
0.00383768
6.52341e-08
-1.97594e-08
0.00463796
-8.72591e-08
0.00463795
3.01903e-08
0.00463793
8.72683e-08
-3.0191e-08
0.00527907
-1.04016e-07
0.00527906
3.903e-08
0.00527905
1.04025e-07
-3.90308e-08
0.00581321
-1.14681e-07
0.0058132
4.61345e-08
0.00581319
1.1469e-07
-4.61353e-08
0.00627299
-1.19444e-07
0.00627298
5.23371e-08
0.00627298
1.19453e-07
-5.2338e-08
0.00668023
-1.18784e-07
0.00668022
5.88227e-08
0.00668022
1.18792e-07
-5.88236e-08
0.00704961
-1.12955e-07
0.0070496
6.66177e-08
0.00704961
1.12963e-07
-6.66187e-08
0.00739119
-1.01793e-07
0.00739118
7.61313e-08
0.00739119
1.01801e-07
-7.61323e-08
0.00771202
-8.49877e-08
0.00771201
8.68282e-08
0.00771203
8.49957e-08
-8.68292e-08
0.0080172
-6.32821e-08
0.00801719
9.73378e-08
0.00801721
6.329e-08
-9.73388e-08
0.00831054
-4.11704e-08
0.00831053
1.06482e-07
0.00831055
4.11782e-08
-1.06483e-07
0.00859496
-2.21064e-08
0.00859495
1.14078e-07
0.00859497
2.21141e-08
-1.14079e-07
0.00887257
-6.40566e-09
0.00887257
1.20274e-07
0.00887258
6.41329e-09
-1.20275e-07
0.00914493
5.791e-09
0.00914492
1.24917e-07
0.00914494
-5.78349e-09
-1.24918e-07
0.00941325
1.44971e-08
0.00941325
1.27843e-07
0.00941326
-1.44897e-08
-1.27844e-07
0.00967853
1.98842e-08
0.00967853
1.28989e-07
0.00967854
-1.98769e-08
-1.28991e-07
0.00994158
2.22007e-08
0.00994158
1.28308e-07
0.00994159
-2.21935e-08
-1.28309e-07
0.0102031
2.17452e-08
0.0102031
1.25798e-07
0.0102031
-2.17381e-08
-1.25799e-07
0.0104636
1.88468e-08
0.0104636
1.2157e-07
0.0104636
-1.88397e-08
-1.21572e-07
0.0107236
1.38535e-08
0.0107236
1.15882e-07
0.0107236
-1.38465e-08
-1.15884e-07
0.0109834
7.14549e-09
0.0109835
1.09138e-07
0.0109834
-7.13855e-09
-1.09139e-07
0.0112436
-7.89064e-10
0.0112436
1.01928e-07
0.0112436
7.95901e-10
-1.01929e-07
0.0115043
-9.32199e-09
0.0115043
9.49646e-08
0.0115043
9.32877e-09
-9.49659e-08
0.0117658
-1.77725e-08
0.0117658
8.88175e-08
0.0117658
1.77791e-08
-8.88189e-08
0.0120285
-2.45689e-08
0.0120285
8.31186e-08
0.0120284
2.45755e-08
-8.312e-08
0.0122925
-2.84125e-08
0.0122925
7.74608e-08
0.0122925
2.8419e-08
-7.74622e-08
0.0125582
-2.95452e-08
0.0125582
7.22351e-08
0.0125582
2.95517e-08
-7.22365e-08
0.0128259
-2.87924e-08
0.0128259
6.78381e-08
0.0128259
2.87988e-08
-6.78395e-08
0.0130955
-2.7018e-08
0.0130955
6.44212e-08
0.0130955
2.70244e-08
-6.44226e-08
0.0133674
-2.48695e-08
0.0133674
6.1907e-08
0.0133674
2.48757e-08
-6.19084e-08
0.0136417
-2.27174e-08
0.0136417
6.00968e-08
0.0136417
2.27235e-08
-6.00983e-08
0.0139185
-2.07056e-08
0.0139185
5.87688e-08
0.0139185
2.07116e-08
-5.87703e-08
0.0141979
-1.88385e-08
0.0141979
5.77392e-08
0.0141979
1.88445e-08
-5.77406e-08
0.0144801
-1.70695e-08
0.0144801
5.68824e-08
0.0144801
1.70754e-08
-5.68839e-08
0.0147651
-1.53646e-08
0.0147651
5.6135e-08
0.0147651
1.53705e-08
-5.61365e-08
0.0150532
-1.37345e-08
0.0150532
5.54933e-08
0.0150532
1.37403e-08
-5.54948e-08
0.0153443
-1.22276e-08
0.0153443
5.50211e-08
0.0153443
1.22334e-08
-5.50226e-08
0.0156387
-1.08878e-08
0.0156387
5.48538e-08
0.0156387
1.08935e-08
-5.48553e-08
0.0159364
-9.68066e-09
0.0159364
5.51846e-08
0.0159364
9.68623e-09
-5.51861e-08
0.0162375
-8.4177e-09
0.0162375
5.61967e-08
0.0162375
8.42319e-09
-5.61982e-08
0.016542
-6.72284e-09
0.016542
5.79256e-08
0.016542
6.72826e-09
-5.79271e-08
0.01685
-4.12145e-09
0.01685
6.00549e-08
0.01685
4.12679e-09
-6.00564e-08
0.0171615
-3.27499e-10
0.0171615
6.17225e-08
0.0171615
3.32778e-10
-6.1724e-08
0.0174765
4.23986e-09
0.0174765
6.14697e-08
0.0174765
-4.23467e-09
-6.14712e-08
0.017795
7.83379e-09
0.017795
5.75112e-08
0.017795
-7.82865e-09
-5.75127e-08
0.0181168
6.99394e-09
0.0181168
4.84237e-08
0.0181168
-6.98889e-09
-4.84253e-08
0.0184421
-2.99749e-09
0.0184421
3.4104e-08
0.0184421
3.00249e-09
-3.41056e-08
0.0187708
-2.60781e-08
0.0187708
1.64024e-08
0.0187708
2.60831e-08
-1.6404e-08
0.0191031
-6.11471e-08
0.0191031
-1.61492e-09
0.019103
6.1152e-08
1.61337e-09
0.0194392
-9.53388e-08
0.0194392
-1.89717e-08
0.0194392
9.53436e-08
1.89702e-08
0.0197795
-1.19379e-07
0.0197795
-3.56818e-08
0.0197795
1.19384e-07
3.56803e-08
0.0201241
-1.35084e-07
0.0201242
-5.07423e-08
0.0201241
1.35088e-07
5.07408e-08
0.0204732
-1.43859e-07
0.0204732
-6.33034e-08
0.0204732
1.43864e-07
6.33019e-08
0.0208268
-1.46683e-07
0.0208268
-7.31284e-08
0.0208268
1.46688e-07
7.31269e-08
0.0211851
-1.4451e-07
0.0211851
-8.03531e-08
0.0211851
1.44515e-07
8.03517e-08
0.021548
-1.38414e-07
0.021548
-8.47772e-08
0.021548
1.38418e-07
8.47757e-08
0.0219157
-1.29436e-07
0.0219157
-8.62928e-08
0.0219157
1.2944e-07
8.62914e-08
0.0222884
-1.18526e-07
0.0222884
-8.5049e-08
0.0222884
1.1853e-07
8.50476e-08
0.022666
-1.0657e-07
0.022666
-8.13279e-08
0.022666
1.06573e-07
8.13266e-08
0.0230487
-9.44181e-08
0.0230487
-7.55283e-08
0.0230487
9.4422e-08
7.55269e-08
0.0234365
-8.27033e-08
0.0234365
-6.83705e-08
0.0234365
8.27071e-08
6.83691e-08
0.0238295
-7.17067e-08
0.0238295
-6.04674e-08
0.0238295
7.17104e-08
6.0466e-08
0.0242279
-6.14859e-08
0.0242279
-5.20434e-08
0.0242279
6.14895e-08
5.20421e-08
0.0246316
-5.20172e-08
0.0246316
-4.32761e-08
0.0246316
5.20208e-08
4.32748e-08
0.0250408
-4.32483e-08
0.0250408
-3.43494e-08
0.0250408
4.32518e-08
3.43481e-08
0.0254555
-3.51321e-08
0.0254555
-2.54572e-08
0.0254555
3.51355e-08
2.5456e-08
0.0258758
-2.76174e-08
0.0258757
-1.6758e-08
0.0258757
2.76207e-08
1.67568e-08
0.0263016
-2.06414e-08
0.0263016
-8.33972e-09
0.0263016
2.06446e-08
8.3385e-09
0.0267332
-1.41306e-08
0.0267332
-2.29836e-10
0.0267332
1.41337e-08
2.28643e-10
0.0271704
-8.00299e-09
0.0271704
7.58363e-09
0.0271704
8.006e-09
-7.5848e-09
0.0276134
-2.17928e-09
0.0276134
1.51095e-08
0.0276134
2.18219e-09
-1.51106e-08
0.0280623
3.37405e-09
0.0280623
2.22743e-08
0.0280623
-3.37125e-09
-2.22754e-08
0.0285169
8.56173e-09
0.0285169
2.87871e-08
0.0285169
-8.55902e-09
-2.87882e-08
0.0289774
1.31057e-08
0.0289774
3.44276e-08
0.0289774
-1.31031e-08
-3.44287e-08
0.0294437
1.68576e-08
0.0294437
3.93038e-08
0.0294437
-1.68551e-08
-3.93049e-08
0.029916
2.01577e-08
0.029916
4.36134e-08
0.029916
-2.01553e-08
-4.36144e-08
0.030394
2.3295e-08
0.030394
4.74537e-08
0.030394
-2.32927e-08
-4.74547e-08
0.030878
2.61163e-08
0.030878
5.08209e-08
0.030878
-2.61141e-08
-5.08218e-08
0.0313677
2.8164e-08
0.0313677
5.37145e-08
0.0313677
-2.8162e-08
-5.37154e-08
0.0318633
2.96353e-08
0.0318633
5.61622e-08
0.0318633
-2.96334e-08
-5.61631e-08
0.0323646
3.1097e-08
0.0323646
5.81861e-08
0.0323646
-3.10952e-08
-5.81869e-08
0.0328716
3.26213e-08
0.0328716
5.98009e-08
0.0328716
-3.26196e-08
-5.98017e-08
0.0333843
3.42108e-08
0.0333843
6.09636e-08
0.0333843
-3.42092e-08
-6.09644e-08
0.0339025
3.56486e-08
0.0339025
6.15304e-08
0.0339025
-3.56471e-08
-6.15311e-08
0.0344261
3.61078e-08
0.0344261
6.12381e-08
0.0344261
-3.61064e-08
-6.12388e-08
0.0349552
3.51473e-08
0.0349552
5.9989e-08
0.0349552
-3.51461e-08
-5.99896e-08
0.0354894
3.3107e-08
0.0354894
5.77063e-08
0.0354894
-3.31059e-08
-5.77069e-08
0.0360288
3.04905e-08
0.0360288
5.40841e-08
0.0360288
-3.04895e-08
-5.40847e-08
0.0365731
2.73657e-08
0.0365731
4.94536e-08
0.0365731
-2.73648e-08
-4.94541e-08
0.0371222
2.35226e-08
0.0371222
4.42908e-08
0.0371222
-2.35218e-08
-4.42912e-08
0.0376758
1.91268e-08
0.0376758
3.8576e-08
0.0376758
-1.91261e-08
-3.85764e-08
0.0382339
1.49523e-08
0.0382339
3.24245e-08
0.0382339
-1.49518e-08
-3.24249e-08
0.0387962
1.1521e-08
0.0387962
2.60458e-08
0.0387962
-1.15206e-08
-2.60461e-08
0.0393624
8.60215e-09
0.0393624
1.95705e-08
0.0393624
-8.60184e-09
-1.95708e-08
0.0399323
5.73365e-09
0.0399324
1.30511e-08
0.0399324
-5.73345e-09
-1.30513e-08
0.0405057
2.84584e-09
0.0405057
6.50353e-09
0.0405057
-2.84577e-09
-6.5036e-09
0.0410822
0.0410822
0.0410822
)
;

boundaryField
{
    inlet
    {
        type            cyclic;
        value           nonuniform List<scalar> 
100
(
-0.0410822
-0.0405057
-0.0399323
-0.0393624
-0.0387962
-0.0382339
-0.0376758
-0.0371221
-0.0365731
-0.0360288
-0.0354894
-0.0349552
-0.0344261
-0.0339025
-0.0333843
-0.0328716
-0.0323646
-0.0318633
-0.0313677
-0.030878
-0.030394
-0.029916
-0.0294437
-0.0289774
-0.0285169
-0.0280623
-0.0276135
-0.0271704
-0.0267332
-0.0263016
-0.0258758
-0.0254555
-0.0250408
-0.0246317
-0.0242279
-0.0238296
-0.0234365
-0.0230487
-0.022666
-0.0222884
-0.0219157
-0.021548
-0.0211851
-0.0208268
-0.0204732
-0.0201241
-0.0197795
-0.0194391
-0.019103
-0.0187708
-0.0184421
-0.0181168
-0.017795
-0.0174765
-0.0171615
-0.01685
-0.016542
-0.0162375
-0.0159364
-0.0156387
-0.0153443
-0.0150532
-0.0147651
-0.0144801
-0.0141979
-0.0139185
-0.0136417
-0.0133674
-0.0130955
-0.0128259
-0.0125582
-0.0122925
-0.0120284
-0.0117658
-0.0115043
-0.0112436
-0.0109834
-0.0107236
-0.0104636
-0.0102031
-0.00994159
-0.00967854
-0.00941326
-0.00914494
-0.00887259
-0.00859498
-0.00831056
-0.00801722
-0.00771204
-0.0073912
-0.00704961
-0.00668023
-0.00627298
-0.0058132
-0.00527905
-0.00463794
-0.00383769
-0.00283383
-0.00169756
-0.000557996
)
;
    }
    outlet
    {
        type            cyclic;
        value           nonuniform List<scalar> 
100
(
0.0410822
0.0405057
0.0399323
0.0393624
0.0387962
0.0382339
0.0376758
0.0371221
0.0365731
0.0360288
0.0354894
0.0349552
0.0344261
0.0339025
0.0333843
0.0328716
0.0323646
0.0318633
0.0313677
0.030878
0.030394
0.029916
0.0294437
0.0289774
0.0285169
0.0280623
0.0276135
0.0271704
0.0267332
0.0263016
0.0258758
0.0254555
0.0250408
0.0246317
0.0242279
0.0238296
0.0234365
0.0230487
0.022666
0.0222884
0.0219157
0.021548
0.0211851
0.0208268
0.0204732
0.0201241
0.0197795
0.0194391
0.019103
0.0187708
0.0184421
0.0181168
0.017795
0.0174765
0.0171615
0.01685
0.016542
0.0162375
0.0159364
0.0156387
0.0153443
0.0150532
0.0147651
0.0144801
0.0141979
0.0139185
0.0136417
0.0133674
0.0130955
0.0128259
0.0125582
0.0122925
0.0120284
0.0117658
0.0115043
0.0112436
0.0109834
0.0107236
0.0104636
0.0102031
0.00994159
0.00967854
0.00941326
0.00914494
0.00887259
0.00859498
0.00831056
0.00801722
0.00771204
0.0073912
0.00704961
0.00668023
0.00627298
0.0058132
0.00527905
0.00463794
0.00383769
0.00283383
0.00169756
0.000557996
)
;
    }
    fixedWalls-bottom
    {
        type            calculated;
        value           uniform 0;
    }
    fixedWalls-top
    {
        type            symmetry;
        value           uniform 0;
    }
    frontAndBack
    {
        type            empty;
        value           nonuniform List<scalar> 0();
    }
}


// ************************************************************************* //
