/*--------------------------------*- C++ -*----------------------------------*\
  =========                 |
  \\      /  F ield         | OpenFOAM: The Open Source CFD Toolbox
   \\    /   O peration     | Website:  https://openfoam.org
    \\  /    A nd           | Version:  10
     \\/     M anipulation  |
\*---------------------------------------------------------------------------*/
FoamFile
{
    format      ascii;
    class       volScalarField;
    location    "10000";
    object      p;
}
// * * * * * * * * * * * * * * * * * * * * * * * * * * * * * * * * * * * * * //

dimensions      [0 2 -2 0 0 0 0];

internalField   nonuniform List<scalar> 
400
(
-7.24068e-18
-3.33916e-16
-3.60369e-16
-1.53752e-16
-1.39792e-17
-3.33559e-16
-3.60468e-16
-1.54094e-16
-1.73497e-17
-3.33181e-16
-3.60609e-16
-1.54464e-16
-2.06082e-17
-3.32871e-16
-3.60697e-16
-1.54899e-16
-2.38408e-17
-3.32501e-16
-3.6089e-16
-1.55301e-16
-2.71556e-17
-3.32067e-16
-3.61063e-16
-1.55774e-16
-2.99879e-17
-3.31825e-16
-3.61384e-16
-1.56097e-16
-3.27469e-17
-3.31518e-16
-3.61711e-16
-1.56508e-16
-3.51644e-17
-3.31158e-16
-3.62095e-16
-1.57084e-16
-3.74445e-17
-3.30711e-16
-3.62579e-16
-1.57828e-16
-3.96973e-17
-3.30248e-16
-3.62911e-16
-1.5866e-16
-4.23434e-17
-3.29775e-16
-3.63087e-16
-1.59356e-16
-4.49867e-17
-3.29422e-16
-3.63117e-16
-1.59944e-16
-4.76159e-17
-3.29327e-16
-3.62972e-16
-1.60597e-16
-5.02696e-17
-3.29159e-16
-3.62745e-16
-1.6118e-16
-5.31555e-17
-3.29189e-16
-3.62511e-16
-1.61389e-16
-5.6426e-17
-3.29696e-16
-3.61816e-16
-1.61168e-16
-5.98483e-17
-3.30242e-16
-3.60963e-16
-1.60959e-16
-6.32705e-17
-3.30835e-16
-3.60154e-16
-1.60641e-16
-6.65984e-17
-3.31106e-16
-3.59404e-16
-1.6063e-16
-6.98043e-17
-3.307e-16
-3.59e-16
-1.60978e-16
-7.27453e-17
-3.29244e-16
-3.58742e-16
-1.62594e-16
-7.55675e-17
-3.28041e-16
-3.58318e-16
-1.64084e-16
-7.93124e-17
-3.27436e-16
-3.57082e-16
-1.64884e-16
-8.33688e-17
-3.27756e-16
-3.55503e-16
-1.64908e-16
-8.74324e-17
-3.28172e-16
-3.53982e-16
-1.64386e-16
-9.12526e-17
-3.27875e-16
-3.52325e-16
-1.65062e-16
-9.54008e-17
-3.27098e-16
-3.50473e-16
-1.66043e-16
-9.88888e-17
-3.26134e-16
-3.49173e-16
-1.6754e-16
-1.027e-16
-3.25648e-16
-3.47568e-16
-1.68392e-16
-1.06379e-16
-3.25297e-16
-3.45977e-16
-1.68933e-16
-1.09868e-16
-3.24297e-16
-3.44648e-16
-1.70162e-16
-1.13728e-16
-3.23421e-16
-3.42954e-16
-1.71483e-16
-1.17887e-16
-3.22701e-16
-3.40609e-16
-1.72675e-16
-1.2182e-16
-3.21333e-16
-3.38774e-16
-1.73958e-16
-1.25092e-16
-3.20304e-16
-3.37004e-16
-1.75777e-16
-1.28247e-16
-3.19628e-16
-3.35419e-16
-1.76826e-16
-1.31324e-16
-3.19262e-16
-3.33921e-16
-1.77837e-16
-1.33921e-16
-3.1849e-16
-3.32879e-16
-1.792e-16
-1.36088e-16
-3.17036e-16
-3.32353e-16
-1.81419e-16
-1.37437e-16
-3.14743e-16
-3.32313e-16
-1.84492e-16
-1.39614e-16
-3.13443e-16
-3.31732e-16
-1.85912e-16
-1.41858e-16
-3.12026e-16
-3.30576e-16
-1.87998e-16
-1.43701e-16
-3.0976e-16
-3.30263e-16
-1.90707e-16
-1.4595e-16
-3.08124e-16
-3.29393e-16
-1.932e-16
-1.48644e-16
-3.05748e-16
-3.28075e-16
-1.95958e-16
-1.51891e-16
-3.03535e-16
-3.26715e-16
-1.98337e-16
-1.54748e-16
-3.00759e-16
-3.256e-16
-2.01297e-16
-1.58308e-16
-2.97515e-16
-3.24113e-16
-2.04841e-16
-1.61171e-16
-2.9518e-16
-3.22526e-16
-2.07986e-16
-1.641e-16
-2.91675e-16
-3.21019e-16
-2.11852e-16
-1.67435e-16
-2.87398e-16
-3.19242e-16
-2.16557e-16
-1.69463e-16
-2.8218e-16
-3.18729e-16
-2.22401e-16
-1.71149e-16
-2.76441e-16
-3.19049e-16
-2.28138e-16
-1.72767e-16
-2.72305e-16
-3.19017e-16
-2.32012e-16
-1.74639e-16
-2.68799e-16
-3.19445e-16
-2.35224e-16
-1.75865e-16
-2.65499e-16
-3.19793e-16
-2.38669e-16
-1.77914e-16
-2.62249e-16
-3.18926e-16
-2.41759e-16
-1.799e-16
-2.59262e-16
-3.18216e-16
-2.44795e-16
-1.80729e-16
-2.55817e-16
-3.19106e-16
-2.48327e-16
-1.80695e-16
-2.50199e-16
-3.20123e-16
-2.53996e-16
-1.79822e-16
-2.46353e-16
-3.21904e-16
-2.58494e-16
-1.792e-16
-2.4294e-16
-3.24141e-16
-2.60783e-16
-1.77758e-16
-2.39827e-16
-3.2678e-16
-2.64095e-16
-1.763e-16
-2.35378e-16
-3.28567e-16
-2.69702e-16
-1.75841e-16
-2.30978e-16
-3.29679e-16
-2.74728e-16
-1.7636e-16
-2.28128e-16
-3.29652e-16
-2.77907e-16
-1.78071e-16
-2.27626e-16
-3.28952e-16
-2.78549e-16
-1.80942e-16
-2.29256e-16
-3.26565e-16
-2.77451e-16
-1.84701e-16
-2.31767e-16
-3.2223e-16
-2.76388e-16
-1.88344e-16
-2.31763e-16
-3.19347e-16
-2.76559e-16
-1.90691e-16
-2.33411e-16
-3.17765e-16
-2.74836e-16
-1.92945e-16
-2.35459e-16
-3.15823e-16
-2.73134e-16
-1.93956e-16
-2.37119e-16
-3.15043e-16
-2.71949e-16
-1.94902e-16
-2.37974e-16
-3.15132e-16
-2.70311e-16
-1.96708e-16
-2.39523e-16
-3.15021e-16
-2.68726e-16
-1.96642e-16
-2.41107e-16
-3.1644e-16
-2.66253e-16
-1.96981e-16
-2.43496e-16
-3.17077e-16
-2.6474e-16
-1.96393e-16
-2.4496e-16
-3.19045e-16
-2.63692e-16
-1.94454e-16
-2.47061e-16
-3.22007e-16
-2.60952e-16
-1.93359e-16
-2.50494e-16
-3.24897e-16
-2.57393e-16
-1.90085e-16
-2.53729e-16
-3.28698e-16
-2.55192e-16
-1.86799e-16
-2.55886e-16
-3.33182e-16
-2.53029e-16
-1.8556e-16
-2.57123e-16
-3.36035e-16
-2.50923e-16
-1.86337e-16
-2.60782e-16
-3.36965e-16
-2.46381e-16
-1.8539e-16
-2.65808e-16
-3.38302e-16
-2.42315e-16
-1.84788e-16
-2.70645e-16
-3.39033e-16
-2.37896e-16
-1.84894e-16
-2.76565e-16
-3.38937e-16
-2.31926e-16
-1.86494e-16
-2.81442e-16
-3.37903e-16
-2.27189e-16
-1.87973e-16
-2.83678e-16
-3.37254e-16
-2.24034e-16
-1.89731e-16
-2.87909e-16
-3.35767e-16
-2.20486e-16
-1.91746e-16
-2.91373e-16
-3.34096e-16
-2.16919e-16
-1.93644e-16
-2.9345e-16
-3.32443e-16
-2.15216e-16
-1.96909e-16
-2.96942e-16
-3.29296e-16
-2.127e-16
-1.99671e-16
-2.9891e-16
-3.26966e-16
-2.10495e-16
-2.02298e-16
-3.01641e-16
-3.25062e-16
-2.07475e-16
-2.0588e-16
-3.06791e-16
-3.21813e-16
-2.02557e-16
-2.08964e-16
-3.11559e-16
-3.19733e-16
-1.97548e-16
-2.10498e-16
-3.15056e-16
-3.18017e-16
-1.9314e-16
-2.13118e-16
-3.18938e-16
-3.16689e-16
-1.87966e-16
)
;

boundaryField
{
    inlet
    {
        type            cyclic;
    }
    outlet
    {
        type            cyclic;
    }
    fixedWalls-bottom
    {
        type            zeroGradient;
    }
    fixedWalls-top
    {
        type            symmetry;
    }
    frontAndBack
    {
        type            empty;
    }
}


// ************************************************************************* //
