# Residuals   
# Time        	p             	Ux            	Uy            
1456          	N/A	N/A
