/*--------------------------------*- C++ -*----------------------------------*\
  =========                 |
  \\      /  F ield         | OpenFOAM: The Open Source CFD Toolbox
   \\    /   O peration     | Website:  https://openfoam.org
    \\  /    A nd           | Version:  10
     \\/     M anipulation  |
\*---------------------------------------------------------------------------*/
FoamFile
{
    format      ascii;
    class       volScalarField;
    location    "5195";
    object      k;
}
// * * * * * * * * * * * * * * * * * * * * * * * * * * * * * * * * * * * * * //

dimensions      [0 2 -2 0 0 0 0];

internalField   nonuniform List<scalar> 
400
(
1.23604e-05
1.23609e-05
1.23604e-05
1.23602e-05
0.000364456
0.000364473
0.000364457
0.000364452
0.00205866
0.00205873
0.00205865
0.00205863
0.00403432
0.00403436
0.00403422
0.00403418
0.00526012
0.00526011
0.00525992
0.0052599
0.00599713
0.00599707
0.00599685
0.00599686
0.00644979
0.00644971
0.00644948
0.0064495
0.0067381
0.00673801
0.00673778
0.00673782
0.0069281
0.00692801
0.00692781
0.00692785
0.00705631
0.00705623
0.00705606
0.0070561
0.00714368
0.00714362
0.00714346
0.00714351
0.00720234
0.00720229
0.00720217
0.00720221
0.00723985
0.00723981
0.0072397
0.00723975
0.0072613
0.00726127
0.00726118
0.00726124
0.00727029
0.00727026
0.00727019
0.00727025
0.00726937
0.00726935
0.0072693
0.00726936
0.00726045
0.00726043
0.00726039
0.00726045
0.00724493
0.00724491
0.00724488
0.00724495
0.0072239
0.00722388
0.00722386
0.00722393
0.0071982
0.00719819
0.00719818
0.00719824
0.00716851
0.0071685
0.00716849
0.00716855
0.00713535
0.00713534
0.00713534
0.0071354
0.00709917
0.00709915
0.00709915
0.00709921
0.0070603
0.00706029
0.00706029
0.00706035
0.00701907
0.00701905
0.00701906
0.00701911
0.0069757
0.00697569
0.0069757
0.00697574
0.00693042
0.00693041
0.00693042
0.00693046
0.00688342
0.00688341
0.00688342
0.00688345
0.00683484
0.00683484
0.00683485
0.00683487
0.00678484
0.00678484
0.00678485
0.00678487
0.00673354
0.00673354
0.00673356
0.00673356
0.00668105
0.00668105
0.00668107
0.00668106
0.00662739
0.00662739
0.00662741
0.0066274
0.00657257
0.00657257
0.00657259
0.00657257
0.00651656
0.00651657
0.00651659
0.00651656
0.00645935
0.00645936
0.00645938
0.00645934
0.00640092
0.00640093
0.00640096
0.00640091
0.00634126
0.00634127
0.0063413
0.00634125
0.00628035
0.00628037
0.0062804
0.00628034
0.0062182
0.00621821
0.00621825
0.00621819
0.0061548
0.00615481
0.00615486
0.00615478
0.00609017
0.00609019
0.00609023
0.00609016
0.00602435
0.00602437
0.00602442
0.00602434
0.00595741
0.00595743
0.00595749
0.0059574
0.00588945
0.00588948
0.00588954
0.00588944
0.00582063
0.00582066
0.00582072
0.00582062
0.00575114
0.00575117
0.00575123
0.00575113
0.00568121
0.00568124
0.00568129
0.0056812
0.0056111
0.00561112
0.00561117
0.00561109
0.00554102
0.00554103
0.00554107
0.00554101
0.00547108
0.00547109
0.00547113
0.0054711
0.00540124
0.00540125
0.00540128
0.00540125
0.00533134
0.00533134
0.00533138
0.00533134
0.00526132
0.00526133
0.00526136
0.00526131
0.00519121
0.00519122
0.00519125
0.00519119
0.00512102
0.00512103
0.00512105
0.00512099
0.00505076
0.00505077
0.0050508
0.00505073
0.00498045
0.00498047
0.00498049
0.00498042
0.00491011
0.00491014
0.00491016
0.00491008
0.00483976
0.00483979
0.00483981
0.00483973
0.00476942
0.00476945
0.00476947
0.00476939
0.00469911
0.00469915
0.00469917
0.00469908
0.00462887
0.00462891
0.00462893
0.00462885
0.00455874
0.00455877
0.00455879
0.00455872
0.00448874
0.00448877
0.00448879
0.00448872
0.00441892
0.00441895
0.00441897
0.0044189
0.00434932
0.00434936
0.00434938
0.00434931
0.00428
0.00428003
0.00428005
0.00427999
0.00421101
0.00421103
0.00421106
0.004211
0.0041424
0.00414242
0.00414244
0.00414239
0.00407423
0.00407425
0.00407428
0.00407422
0.00400658
0.00400659
0.00400662
0.00400657
0.0039395
0.00393951
0.00393954
0.0039395
0.00387308
0.00387309
0.00387312
0.00387308
0.0038074
0.00380741
0.00380743
0.0038074
0.00374254
0.00374255
0.00374257
0.00374254
0.0036786
0.00367861
0.00367862
0.0036786
0.00361567
0.00361567
0.00361569
0.00361566
0.00355385
0.00355385
0.00355387
0.00355385
0.00349325
0.00349326
0.00349327
0.00349325
0.003434
0.003434
0.00343401
0.003434
0.0033762
0.00337621
0.00337622
0.0033762
0.00332
0.00332
0.00332001
0.00332
0.00326552
0.00326552
0.00326553
0.00326552
0.0032129
0.0032129
0.00321291
0.0032129
0.00316229
0.00316229
0.0031623
0.00316229
0.00311384
0.00311384
0.00311385
0.00311385
0.00306771
0.00306771
0.00306772
0.00306771
0.00302406
0.00302406
0.00302406
0.00302406
0.00298305
0.00298305
0.00298305
0.00298305
0.00294485
0.00294485
0.00294485
0.00294486
0.00290964
0.00290964
0.00290964
0.00290965
0.0028776
0.0028776
0.0028776
0.0028776
0.0028489
0.0028489
0.0028489
0.0028489
0.00282373
0.00282373
0.00282373
0.00282373
0.00280227
0.00280227
0.00280227
0.00280228
0.00278472
0.00278472
0.00278472
0.00278472
0.00277126
0.00277126
0.00277126
0.00277127
0.00276209
0.00276209
0.00276209
0.0027621
0.00275741
0.00275741
0.00275741
0.00275741
)
;

boundaryField
{
    inlet
    {
        type            cyclic;
    }
    outlet
    {
        type            cyclic;
    }
    fixedWalls-bottom
    {
        type            kqRWallFunction;
        value           nonuniform List<scalar> 4(1.23604e-05 1.23609e-05 1.23604e-05 1.23602e-05);
    }
    fixedWalls-top
    {
        type            symmetry;
    }
    frontAndBack
    {
        type            empty;
    }
}


// ************************************************************************* //
