/*--------------------------------*- C++ -*----------------------------------*\
  =========                 |
  \\      /  F ield         | OpenFOAM: The Open Source CFD Toolbox
   \\    /   O peration     | Website:  https://openfoam.org
    \\  /    A nd           | Version:  10
     \\/     M anipulation  |
\*---------------------------------------------------------------------------*/
FoamFile
{
    format      ascii;
    class       volScalarField;
    location    "5195";
    object      nut;
}
// * * * * * * * * * * * * * * * * * * * * * * * * * * * * * * * * * * * * * //

dimensions      [0 2 -1 0 0 0 0];

internalField   nonuniform List<scalar> 
400
(
1.05238e-08
1.05242e-08
1.05238e-08
1.05236e-08
1.68333e-06
1.68342e-06
1.68335e-06
1.68332e-06
2.22787e-05
2.22798e-05
2.2279e-05
2.22787e-05
7.1958e-05
7.19592e-05
7.19565e-05
7.19556e-05
0.000132925
0.000132925
0.00013292
0.000132918
0.000203813
0.000203813
0.000203804
0.000203802
0.000282002
0.000282002
0.00028199
0.000281986
0.000365249
0.000365251
0.000365236
0.00036523
0.000451493
0.000451493
0.000451475
0.000451469
0.00053811
0.000538085
0.000538063
0.00053807
0.000625022
0.000625
0.00062498
0.000624989
0.000713032
0.000713008
0.000712994
0.000713007
0.000801908
0.000801885
0.000801873
0.000801893
0.000891485
0.000891466
0.000891456
0.000891484
0.000981652
0.000981637
0.00098163
0.000981667
0.00107233
0.00107232
0.00107232
0.00107236
0.00116347
0.00116346
0.00116346
0.00116352
0.00125504
0.00125504
0.00125504
0.0012551
0.00134703
0.00134703
0.00134703
0.00134711
0.00143943
0.00143943
0.00143944
0.00143952
0.00153225
0.00153225
0.00153226
0.00153235
0.00162551
0.00162551
0.00162552
0.00162561
0.00171922
0.00171922
0.00171924
0.00171932
0.00181341
0.00181341
0.00181343
0.00181351
0.00190811
0.00190811
0.00190813
0.00190821
0.00200335
0.00200335
0.00200337
0.00200343
0.00209915
0.00209915
0.00209918
0.00209922
0.00219554
0.00219555
0.00219559
0.0021956
0.00229257
0.00229258
0.00229263
0.00229261
0.00239026
0.00239028
0.00239032
0.00239028
0.00248863
0.00248865
0.00248868
0.00248861
0.00258714
0.00258716
0.00258717
0.00258711
0.00268258
0.0026826
0.0026826
0.00268256
0.00277614
0.00277616
0.00277616
0.00277612
0.0028686
0.00286862
0.00286862
0.00286859
0.00296045
0.00296046
0.00296047
0.00296045
0.00305199
0.003052
0.00305202
0.00305199
0.00314341
0.00314341
0.00314344
0.00314341
0.00323488
0.00323489
0.00323492
0.00323489
0.00332663
0.00332664
0.00332668
0.00332664
0.00341901
0.00341903
0.00341908
0.00341902
0.00351259
0.00351263
0.00351269
0.0035126
0.00360824
0.00360829
0.00360833
0.00360822
0.00370712
0.00370718
0.00370719
0.00370706
0.00381074
0.00381076
0.00381072
0.00381064
0.00392076
0.00392071
0.00392059
0.00392065
0.00403877
0.00403859
0.00403842
0.00403876
0.00416571
0.00416541
0.00416523
0.00416598
0.00430108
0.00430072
0.00430062
0.00430179
0.00444171
0.00444143
0.00444147
0.00444279
0.00458021
0.00458009
0.00458021
0.00458084
0.00470307
0.00470288
0.00470281
0.00470105
0.00481296
0.00481274
0.00481264
0.00481077
0.00492194
0.00492168
0.00492155
0.00491959
0.00502954
0.0050293
0.00502914
0.0050271
0.00513533
0.00513528
0.00513504
0.00513296
0.00523929
0.00523928
0.00523897
0.00523689
0.00534111
0.00534117
0.00534074
0.00533872
0.0054407
0.00544081
0.00544025
0.0054383
0.005538
0.00553804
0.00553749
0.00553556
0.0056329
0.00563292
0.00563238
0.00563049
0.00572543
0.00572544
0.00572493
0.00572308
0.00581561
0.00581563
0.00581514
0.00581334
0.00590346
0.00590349
0.00590302
0.00590128
0.00598899
0.00598904
0.0059886
0.00598691
0.00607221
0.00607227
0.00607186
0.00607022
0.00615312
0.00615318
0.00615281
0.00615121
0.00623172
0.00623171
0.00623143
0.00622985
0.00630802
0.00630781
0.00630772
0.00630614
0.00638187
0.00638166
0.00638159
0.00638007
0.00645332
0.00645313
0.00645306
0.00645161
0.00652234
0.00652222
0.00652212
0.00652077
0.00658889
0.00658892
0.00658878
0.00658754
0.00665316
0.00665326
0.00665303
0.00665192
0.00671507
0.00671516
0.00671495
0.00671392
0.00677464
0.00677471
0.00677452
0.00677359
0.00683189
0.00683195
0.00683179
0.00683095
0.00688687
0.00688693
0.00688681
0.00688607
0.00693966
0.00693972
0.00693963
0.00693899
0.0069903
0.00699036
0.00699031
0.00698978
0.00703887
0.00703895
0.00703891
0.0070385
0.00708544
0.00708556
0.00708552
0.00708522
0.00713007
0.00713023
0.00713018
0.00713001
0.00717286
0.00717301
0.00717297
0.00717292
0.00721385
0.00721396
0.00721399
0.00721398
0.00725302
0.0072531
0.00725319
0.00725325
0.00729043
0.00729042
0.00729063
0.00729075
0.00732607
0.00732603
0.00732625
0.00732646
0.0073599
0.00735985
0.00736007
0.00736036
0.00739186
0.00739185
0.00739205
0.00739239
0.00742187
0.00742198
0.00742206
0.00742246
0.00744984
0.00744992
0.00745003
0.00745046
0.0074756
0.00747559
0.00747581
0.00747625
0.00749895
0.007499
0.00749914
0.00749964
0.00751965
0.00751991
0.00751985
0.00752044
0.00753763
0.00753788
0.00753782
0.00753838
0.00755254
0.00755276
0.00755274
0.00755324
0.00756415
0.00756429
0.00756435
0.00756478
0.00757224
0.00757216
0.00757242
0.00757276
0.00757641
0.00757635
0.00757663
0.00757698
)
;

boundaryField
{
    inlet
    {
        type            cyclic;
    }
    outlet
    {
        type            cyclic;
    }
    fixedWalls-bottom
    {
        type            nutkWallFunction;
        Cmu             0.09;
        kappa           0.41;
        E               9.8;
        value           uniform 0;
    }
    fixedWalls-top
    {
        type            symmetry;
    }
    frontAndBack
    {
        type            empty;
    }
}


// ************************************************************************* //
