/*--------------------------------*- C++ -*----------------------------------*\
  =========                 |
  \\      /  F ield         | OpenFOAM: The Open Source CFD Toolbox
   \\    /   O peration     | Website:  https://openfoam.org
    \\  /    A nd           | Version:  10
     \\/     M anipulation  |
\*---------------------------------------------------------------------------*/
FoamFile
{
    format      ascii;
    class       surfaceScalarField;
    location    "5195";
    object      phi;
}
// * * * * * * * * * * * * * * * * * * * * * * * * * * * * * * * * * * * * * //

dimensions      [0 3 -1 0 0 0 0];

internalField   nonuniform List<scalar> 
696
(
0.00071083
-4.5399e-09
0.00071083
-6.79087e-10
0.000710826
4.53263e-09
6.79193e-10
0.00215064
-1.83122e-08
0.00215064
-1.65196e-09
0.00215063
1.83053e-08
1.6522e-09
0.00346456
-3.77319e-08
0.00346456
4.15319e-10
0.00346454
3.77253e-08
-4.14987e-10
0.00445914
-5.67448e-08
0.00445914
4.96625e-09
0.00445912
5.67385e-08
-4.96585e-09
0.0051932
-7.2442e-08
0.0051932
9.95993e-09
0.00519318
7.24358e-08
-9.95949e-09
0.00576947
-8.39518e-08
0.00576946
1.49063e-08
0.00576945
8.39458e-08
-1.49058e-08
0.00624596
-9.11444e-08
0.00624595
2.04894e-08
0.00624594
9.11386e-08
-2.04889e-08
0.00665702
-9.40094e-08
0.00665701
2.78002e-08
0.00665701
9.40036e-08
-2.77997e-08
0.00702372
-9.2623e-08
0.00702371
3.69158e-08
0.00702371
9.26173e-08
-3.69153e-08
0.00735971
-8.80792e-08
0.0073597
4.47799e-08
0.00735971
8.80736e-08
-4.47794e-08
0.00767394
-8.1452e-08
0.00767393
5.01891e-08
0.00767394
8.14465e-08
-5.01885e-08
0.00797216
-7.34487e-08
0.00797216
5.43026e-08
0.00797217
7.34432e-08
-5.4302e-08
0.0082583
-6.476e-08
0.00825829
5.75616e-08
0.0082583
6.47547e-08
-5.7561e-08
0.00853521
-5.58589e-08
0.00853521
6.02205e-08
0.00853522
5.58536e-08
-6.02199e-08
0.00880507
-4.71287e-08
0.00880507
6.25307e-08
0.00880508
4.71235e-08
-6.25301e-08
0.00906954
-3.88928e-08
0.00906954
6.4615e-08
0.00906955
3.88876e-08
-6.46143e-08
0.00932993
-3.14072e-08
0.00932993
6.64732e-08
0.00932994
3.14021e-08
-6.64725e-08
0.00958727
-2.4861e-08
0.00958727
6.80074e-08
0.00958728
2.4856e-08
-6.80067e-08
0.00984243
-1.93642e-08
0.00984243
6.91183e-08
0.00984243
1.93593e-08
-6.91176e-08
0.0100961
-1.49609e-08
0.0100961
6.97415e-08
0.0100961
1.4956e-08
-6.97407e-08
0.0103488
-1.1653e-08
0.0103488
6.98206e-08
0.0103488
1.16482e-08
-6.98199e-08
0.0106012
-9.40646e-09
0.0106012
6.93167e-08
0.0106012
9.40171e-09
-6.93159e-08
0.0108535
-8.15717e-09
0.0108535
6.82133e-08
0.0108535
8.1525e-09
-6.82125e-08
0.0111062
-7.81746e-09
0.0111062
6.65221e-08
0.0111062
7.81284e-09
-6.65214e-08
0.0113596
-8.27718e-09
0.0113596
6.42921e-08
0.0113596
8.27264e-09
-6.42914e-08
0.011614
-9.40919e-09
0.011614
6.16327e-08
0.011614
9.40469e-09
-6.16319e-08
0.0118695
-1.10584e-08
0.0118695
5.8753e-08
0.0118695
1.1054e-08
-5.87522e-08
0.0121265
-1.30278e-08
0.0121265
5.5956e-08
0.0121265
1.30234e-08
-5.59551e-08
0.0123851
-1.50853e-08
0.0123851
5.35232e-08
0.0123851
1.5081e-08
-5.35224e-08
0.0126455
-1.69481e-08
0.0126455
5.16489e-08
0.0126455
1.69438e-08
-5.16481e-08
0.0129079
-1.82293e-08
0.0129079
5.04182e-08
0.0129079
1.82251e-08
-5.04173e-08
0.0131724
-1.86749e-08
0.0131724
4.95956e-08
0.0131724
1.86707e-08
-4.95947e-08
0.0134392
-1.83257e-08
0.0134392
4.89047e-08
0.0134392
1.83216e-08
-4.89039e-08
0.0137085
-1.73608e-08
0.0137085
4.83184e-08
0.0137085
1.73567e-08
-4.83176e-08
0.0139806
-1.59915e-08
0.0139806
4.78623e-08
0.0139806
1.59875e-08
-4.78614e-08
0.0142554
-1.44077e-08
0.0142554
4.7539e-08
0.0142554
1.44038e-08
-4.75381e-08
0.0145333
-1.27607e-08
0.0145333
4.73177e-08
0.0145333
1.27568e-08
-4.73168e-08
0.0148142
-1.11666e-08
0.0148142
4.71605e-08
0.0148142
1.11628e-08
-4.71596e-08
0.0150982
-9.71217e-09
0.0150982
4.70639e-08
0.0150982
9.7084e-09
-4.7063e-08
0.0153855
-8.44525e-09
0.0153855
4.70974e-08
0.0153855
8.44151e-09
-4.70965e-08
0.0156762
-7.33914e-09
0.0156762
4.74115e-08
0.0156762
7.33547e-09
-4.74106e-08
0.0159702
-6.23941e-09
0.0159702
4.81971e-08
0.0159702
6.23578e-09
-4.81962e-08
0.0162677
-4.82876e-09
0.0162677
4.95717e-08
0.0162677
4.8252e-09
-4.95708e-08
0.0165687
-2.67629e-09
0.0165687
5.14006e-08
0.0165687
2.67277e-09
-5.13997e-08
0.0168731
5.54058e-10
0.0168731
5.31013e-08
0.0168731
-5.57516e-10
-5.31003e-08
0.0171811
4.6942e-09
0.0171811
5.35454e-08
0.0171811
-4.69762e-09
-5.35444e-08
0.0174925
8.53397e-09
0.0174925
5.121e-08
0.0174925
-8.53733e-09
-5.12091e-08
0.0178073
9.42051e-09
0.0178073
4.46982e-08
0.0178073
-9.42382e-09
-4.46972e-08
0.0181255
3.49818e-09
0.0181255
3.35492e-08
0.0181255
-3.50143e-09
-3.35483e-08
0.018447
-1.276e-08
0.018447
1.8899e-08
0.018447
1.27568e-08
-1.88981e-08
0.0187719
-3.91506e-08
0.018772
3.12736e-09
0.0187719
3.91474e-08
-3.12645e-09
0.0191006
-6.62523e-08
0.0191006
-1.25199e-08
0.0191006
6.62492e-08
1.25208e-08
0.0194332
-8.67933e-08
0.0194332
-2.77684e-08
0.0194332
8.67902e-08
2.77694e-08
0.0197699
-1.0164e-07
0.0197699
-4.20324e-08
0.0197699
1.01637e-07
4.20334e-08
0.0201108
-1.11623e-07
0.0201108
-5.48396e-08
0.0201108
1.1162e-07
5.48406e-08
0.0204559
-1.17429e-07
0.0204559
-6.54167e-08
0.0204559
1.17426e-07
6.54177e-08
0.0208054
-1.19707e-07
0.0208054
-7.32221e-08
0.0208054
1.19704e-07
7.32231e-08
0.0211594
-1.19031e-07
0.0211594
-7.83458e-08
0.0211594
1.19028e-07
7.83467e-08
0.0215178
-1.1579e-07
0.0215178
-8.11256e-08
0.0215178
1.15788e-07
8.11266e-08
0.0218808
-1.10474e-07
0.0218808
-8.2005e-08
0.0218809
1.10471e-07
8.2006e-08
0.0222486
-1.03667e-07
0.0222486
-8.13432e-08
0.0222486
1.03665e-07
8.13441e-08
0.022621
-9.58661e-08
0.022621
-7.93842e-08
0.022621
9.58634e-08
7.93852e-08
0.0229983
-8.74977e-08
0.0229983
-7.63135e-08
0.0229983
8.7495e-08
7.63145e-08
0.0233805
-7.89201e-08
0.0233805
-7.22842e-08
0.0233805
7.89175e-08
7.22852e-08
0.0237676
-7.04048e-08
0.0237676
-6.74407e-08
0.0237676
7.04023e-08
6.74417e-08
0.0241597
-6.21241e-08
0.0241597
-6.1927e-08
0.0241597
6.21216e-08
6.19279e-08
0.0245569
-5.41721e-08
0.0245569
-5.58918e-08
0.0245569
5.41697e-08
5.58928e-08
0.0249593
-4.66389e-08
0.0249593
-4.95028e-08
0.0249593
4.66366e-08
4.95037e-08
0.0253668
-3.97837e-08
0.0253668
-4.30178e-08
0.0253668
3.97814e-08
4.30188e-08
0.0257796
-3.37698e-08
0.0257796
-3.66894e-08
0.0257796
3.37675e-08
3.66904e-08
0.0261976
-2.85147e-08
0.0261976
-3.06508e-08
0.0261976
2.85125e-08
3.06518e-08
0.026621
-2.39229e-08
0.026621
-2.49303e-08
0.026621
2.39207e-08
2.49312e-08
0.0270498
-1.98559e-08
0.0270498
-1.93753e-08
0.0270498
1.98539e-08
1.93762e-08
0.027484
-1.61023e-08
0.027484
-1.3936e-08
0.027484
1.61003e-08
1.39369e-08
0.0279237
-1.25315e-08
0.0279237
-8.74906e-09
0.0279237
1.25295e-08
8.74992e-09
0.0283689
-9.13259e-09
0.0283689
-3.8949e-09
0.0283689
9.1307e-09
3.89575e-09
0.0288196
-5.90569e-09
0.0288196
5.83424e-10
0.0288196
5.90386e-09
-5.82599e-10
0.0292758
-2.87023e-09
0.0292758
4.66271e-09
0.0292758
2.86847e-09
-4.66191e-09
0.0297376
-6.30324e-11
0.0297376
8.33347e-09
0.0297376
6.13442e-11
-8.33268e-09
0.030205
2.46847e-09
0.030205
1.15956e-08
0.030205
-2.4701e-09
-1.15948e-08
0.0306779
4.67788e-09
0.0306779
1.44557e-08
0.0306779
-4.67943e-09
-1.4455e-08
0.0311565
6.55854e-09
0.0311565
1.693e-08
0.0311565
-6.56003e-09
-1.69293e-08
0.0316406
8.13729e-09
0.0316406
1.90265e-08
0.0316406
-8.1387e-09
-1.90258e-08
0.0321303
9.43141e-09
0.0321303
2.07063e-08
0.0321303
-9.43275e-09
-2.07056e-08
0.0326255
1.04586e-08
0.0326255
2.19507e-08
0.0326255
-1.04599e-08
-2.19501e-08
0.0331262
1.12154e-08
0.0331262
2.2775e-08
0.0331262
-1.12166e-08
-2.27743e-08
0.0336325
1.16067e-08
0.0336325
2.31882e-08
0.0336325
-1.16078e-08
-2.31876e-08
0.0341442
1.15563e-08
0.0341442
2.31767e-08
0.0341442
-1.15573e-08
-2.31762e-08
0.0346612
1.10826e-08
0.0346612
2.27075e-08
0.0346612
-1.10835e-08
-2.2707e-08
0.0351836
1.02682e-08
0.0351836
2.18012e-08
0.0351836
-1.0269e-08
-2.18007e-08
0.0357113
9.30836e-09
0.0357113
2.0509e-08
0.0357113
-9.30914e-09
-2.05085e-08
0.0362441
8.3214e-09
0.0362441
1.88863e-08
0.0362441
-8.32209e-09
-1.88859e-08
0.036782
7.22915e-09
0.0367821
1.70027e-08
0.036782
-7.22975e-09
-1.70023e-08
0.037325
6.008e-09
0.037325
1.48988e-08
0.037325
-6.00851e-09
-1.48985e-08
0.0378727
4.79391e-09
0.0378727
1.26191e-08
0.0378727
-4.79433e-09
-1.26188e-08
0.0384253
3.68301e-09
0.0384253
1.02193e-08
0.0384253
-3.68334e-09
-1.02191e-08
0.0389824
2.67993e-09
0.0389824
7.73715e-09
0.0389824
-2.68016e-09
-7.73698e-09
0.0395439
1.76008e-09
0.0395439
5.19967e-09
0.0395439
-1.76021e-09
-5.19956e-09
0.0401097
8.63069e-10
0.0401097
2.61345e-09
0.0401097
-8.63109e-10
-2.61341e-09
0.0406795
0.0406795
0.0406795
)
;

boundaryField
{
    inlet
    {
        type            cyclic;
        value           nonuniform List<scalar> 
100
(
-0.0406795
-0.0401097
-0.0395439
-0.0389824
-0.0384253
-0.0378727
-0.037325
-0.036782
-0.0362441
-0.0357113
-0.0351836
-0.0346612
-0.0341442
-0.0336325
-0.0331262
-0.0326255
-0.0321303
-0.0316406
-0.0311565
-0.0306779
-0.030205
-0.0297376
-0.0292758
-0.0288196
-0.0283689
-0.0279237
-0.0274841
-0.0270498
-0.026621
-0.0261976
-0.0257796
-0.0253668
-0.0249593
-0.0245569
-0.0241597
-0.0237676
-0.0233805
-0.0229983
-0.022621
-0.0222486
-0.0218809
-0.0215178
-0.0211594
-0.0208054
-0.0204559
-0.0201107
-0.0197699
-0.0194332
-0.0191006
-0.0187719
-0.018447
-0.0181254
-0.0178073
-0.0174925
-0.0171811
-0.0168731
-0.0165687
-0.0162677
-0.0159702
-0.0156762
-0.0153855
-0.0150982
-0.0148142
-0.0145333
-0.0142554
-0.0139806
-0.0137085
-0.0134392
-0.0131724
-0.0129079
-0.0126455
-0.0123851
-0.0121265
-0.0118695
-0.011614
-0.0113596
-0.0111062
-0.0108535
-0.0106012
-0.0103488
-0.0100961
-0.00984243
-0.00958728
-0.00932994
-0.00906955
-0.00880508
-0.00853522
-0.0082583
-0.00797217
-0.00767395
-0.00735971
-0.00702372
-0.00665702
-0.00624595
-0.00576946
-0.00519319
-0.00445912
-0.00346454
-0.00215063
-0.000710825
)
;
    }
    outlet
    {
        type            cyclic;
        value           nonuniform List<scalar> 
100
(
0.0406795
0.0401097
0.0395439
0.0389824
0.0384253
0.0378727
0.037325
0.036782
0.0362441
0.0357113
0.0351836
0.0346612
0.0341442
0.0336325
0.0331262
0.0326255
0.0321303
0.0316406
0.0311565
0.0306779
0.030205
0.0297376
0.0292758
0.0288196
0.0283689
0.0279237
0.0274841
0.0270498
0.026621
0.0261976
0.0257796
0.0253668
0.0249593
0.0245569
0.0241597
0.0237676
0.0233805
0.0229983
0.022621
0.0222486
0.0218809
0.0215178
0.0211594
0.0208054
0.0204559
0.0201107
0.0197699
0.0194332
0.0191006
0.0187719
0.018447
0.0181254
0.0178073
0.0174925
0.0171811
0.0168731
0.0165687
0.0162677
0.0159702
0.0156762
0.0153855
0.0150982
0.0148142
0.0145333
0.0142554
0.0139806
0.0137085
0.0134392
0.0131724
0.0129079
0.0126455
0.0123851
0.0121265
0.0118695
0.011614
0.0113596
0.0111062
0.0108535
0.0106012
0.0103488
0.0100961
0.00984243
0.00958728
0.00932994
0.00906955
0.00880508
0.00853522
0.0082583
0.00797217
0.00767395
0.00735971
0.00702372
0.00665702
0.00624595
0.00576946
0.00519319
0.00445912
0.00346454
0.00215063
0.000710825
)
;
    }
    fixedWalls-bottom
    {
        type            calculated;
        value           uniform 0;
    }
    fixedWalls-top
    {
        type            symmetry;
        value           uniform 0;
    }
    frontAndBack
    {
        type            empty;
        value           nonuniform List<scalar> 0();
    }
}


// ************************************************************************* //
