/*--------------------------------*- C++ -*----------------------------------*\
  =========                 |
  \\      /  F ield         | OpenFOAM: The Open Source CFD Toolbox
   \\    /   O peration     | Website:  https://openfoam.org
    \\  /    A nd           | Version:  10
     \\/     M anipulation  |
\*---------------------------------------------------------------------------*/
FoamFile
{
    format      ascii;
    class       volSymmTensorField;
    location    "5195";
    object      R;
}
// * * * * * * * * * * * * * * * * * * * * * * * * * * * * * * * * * * * * * //

dimensions      [0 2 -2 0 0 0 0];

internalField   nonuniform List<symmTensor> 
400
(
(8.24025e-06 -3.48748e-07 -0 8.24025e-06 -0 8.24025e-06)
(8.24062e-06 -3.48767e-07 -0 8.24062e-06 -0 8.24062e-06)
(8.24027e-06 -3.4875e-07 -0 8.24027e-06 -0 8.24027e-06)
(8.24015e-06 -3.48742e-07 -0 8.24015e-06 -0 8.24015e-06)
(0.000242971 -5.18404e-05 -0 0.000242971 -0 0.000242971)
(0.000242982 -5.18431e-05 -0 0.000242982 -0 0.000242982)
(0.000242971 -5.18407e-05 -0 0.000242971 -0 0.000242971)
(0.000242968 -5.18398e-05 -0 0.000242968 -0 0.000242968)
(0.00137244 -0.000548885 -0 0.00137244 -0 0.00137244)
(0.00137249 -0.000548913 -0 0.00137249 -0 0.00137249)
(0.00137244 -0.00054889 -0 0.00137244 -0 0.00137244)
(0.00137242 -0.000548883 -0 0.00137242 -0 0.00137242)
(0.00268955 -0.00125064 -0 0.00268955 -0 0.00268955)
(0.00268958 -0.00125066 -0 0.00268958 -0 0.00268958)
(0.00268948 -0.00125061 -0 0.00268948 -0 0.00268948)
(0.00268946 -0.0012506 -0 0.00268946 -0 0.00268946)
(0.00350674 -0.00163078 -0 0.00350675 -0 0.00350674)
(0.00350674 -0.00163078 -0 0.00350674 -0 0.00350674)
(0.00350661 -0.00163072 -0 0.00350661 -0 0.00350661)
(0.0035066 -0.00163072 -0 0.0035066 -0 0.0035066)
(0.00399808 -0.00185921 -0 0.00399809 -0 0.00399808)
(0.00399805 -0.0018592 -0 0.00399805 -0 0.00399805)
(0.0039979 -0.00185913 -0 0.0039979 -0 0.0039979)
(0.0039979 -0.00185913 -0 0.0039979 -0 0.0039979)
(0.00429986 -0.00199944 -0 0.00429986 -0 0.00429986)
(0.0042998 -0.00199942 -0 0.0042998 -0 0.0042998)
(0.00429965 -0.00199935 -0 0.00429965 -0 0.00429965)
(0.00429967 -0.00199935 -0 0.00429967 -0 0.00429967)
(0.00449207 -0.00208881 -0 0.00449207 -0 0.00449207)
(0.004492 -0.00208878 -0 0.004492 -0 0.004492)
(0.00449186 -0.00208871 -0 0.00449186 -0 0.00449186)
(0.00449188 -0.00208873 -0 0.00449188 -0 0.00449188)
(0.00461873 -0.00214771 -0 0.00461873 -0 0.00461873)
(0.00461868 -0.00214768 -0 0.00461867 -0 0.00461868)
(0.00461854 -0.00214762 -0 0.00461854 -0 0.00461854)
(0.00461857 -0.00214763 -0 0.00461857 -0 0.00461857)
(0.00470421 -0.00218412 -0 0.00470421 -0 0.00470421)
(0.00470416 -0.00218403 -0 0.00470415 -0 0.00470416)
(0.00470404 -0.00218397 -0 0.00470404 -0 0.00470404)
(0.00470406 -0.00218402 -0 0.00470407 -0 0.00470407)
(0.00476245 -0.00220778 -0 0.00476245 -0 0.00476245)
(0.00476241 -0.00220772 -0 0.00476241 -0 0.00476241)
(0.00476231 -0.00220767 -0 0.00476231 -0 0.00476231)
(0.00476234 -0.00220771 -0 0.00476234 -0 0.00476234)
(0.00480156 -0.00222425 -0 0.00480156 -0 0.00480156)
(0.00480153 -0.00222419 -0 0.00480153 -0 0.00480153)
(0.00480144 -0.00222416 -0 0.00480145 -0 0.00480144)
(0.00480147 -0.00222421 -0 0.00480148 -0 0.00480147)
(0.00482657 -0.00223467 -0 0.00482656 -0 0.00482656)
(0.00482654 -0.00223461 -0 0.00482654 -0 0.00482654)
(0.00482646 -0.00223459 -0 0.00482647 -0 0.00482647)
(0.0048265 -0.00223464 -0 0.0048265 -0 0.0048265)
(0.00484087 -0.00224053 -0 0.00484087 -0 0.00484087)
(0.00484085 -0.00224049 -0 0.00484085 -0 0.00484085)
(0.00484079 -0.00224047 -0 0.00484079 -0 0.00484079)
(0.00484082 -0.00224053 -0 0.00484083 -0 0.00484082)
(0.00484686 -0.00224288 -0 0.00484686 -0 0.00484686)
(0.00484684 -0.00224285 -0 0.00484684 -0 0.00484684)
(0.00484679 -0.00224284 -0 0.0048468 -0 0.00484679)
(0.00484683 -0.0022429 -0 0.00484683 -0 0.00484683)
(0.00484625 -0.00224245 -0 0.00484625 -0 0.00484625)
(0.00484623 -0.00224243 -0 0.00484623 -0 0.00484623)
(0.00484619 -0.00224243 -0 0.0048462 -0 0.0048462)
(0.00484624 -0.0022425 -0 0.00484624 -0 0.00484624)
(0.0048403 -0.00223979 -0 0.0048403 -0 0.0048403)
(0.00484029 -0.00223978 -0 0.00484028 -0 0.00484029)
(0.00484025 -0.00223978 -0 0.00484026 -0 0.00484026)
(0.0048403 -0.00223985 -0 0.0048403 -0 0.0048403)
(0.00482995 -0.00223527 -0 0.00482995 -0 0.00482995)
(0.00482994 -0.00223527 -0 0.00482994 -0 0.00482994)
(0.00482992 -0.00223528 -0 0.00482992 -0 0.00482992)
(0.00482996 -0.00223535 -0 0.00482996 -0 0.00482996)
(0.00481594 -0.00222921 -0 0.00481593 -0 0.00481593)
(0.00481592 -0.00222922 -0 0.00481592 -0 0.00481592)
(0.00481591 -0.00222923 -0 0.00481591 -0 0.00481591)
(0.00481595 -0.00222931 -0 0.00481595 -0 0.00481595)
(0.00479881 -0.00222183 -0 0.0047988 -0 0.0047988)
(0.00479879 -0.00222184 -0 0.00479879 -0 0.00479879)
(0.00479878 -0.00222186 -0 0.00479879 -0 0.00479878)
(0.00479883 -0.00222194 -0 0.00479883 -0 0.00479883)
(0.00477901 -0.00221331 -0 0.00477901 -0 0.00477901)
(0.004779 -0.00221333 -0 0.004779 -0 0.004779)
(0.00477899 -0.00221335 -0 0.004779 -0 0.00477899)
(0.00477903 -0.00221342 -0 0.00477903 -0 0.00477903)
(0.0047569 -0.0022038 -0 0.0047569 -0 0.0047569)
(0.00475689 -0.00220381 -0 0.00475689 -0 0.00475689)
(0.00475689 -0.00220384 -0 0.00475689 -0 0.00475689)
(0.00475693 -0.0022039 -0 0.00475693 -0 0.00475693)
(0.00473278 -0.00219339 -0 0.00473278 -0 0.00473278)
(0.00473277 -0.00219341 -0 0.00473277 -0 0.00473277)
(0.00473277 -0.00219343 -0 0.00473277 -0 0.00473277)
(0.00473281 -0.0021935 -0 0.00473281 -0 0.00473281)
(0.00470687 -0.00218219 -0 0.00470687 -0 0.00470687)
(0.00470686 -0.0021822 -0 0.00470686 -0 0.00470686)
(0.00470686 -0.00218223 -0 0.00470686 -0 0.00470686)
(0.0047069 -0.00218229 -0 0.0047069 -0 0.0047069)
(0.00467938 -0.00217026 -0 0.00467938 -0 0.00467938)
(0.00467937 -0.00217028 -0 0.00467937 -0 0.00467937)
(0.00467937 -0.0021703 -0 0.00467937 -0 0.00467937)
(0.00467941 -0.00217035 -0 0.0046794 -0 0.0046794)
(0.00465047 -0.00215767 -0 0.00465047 -0 0.00465047)
(0.00465046 -0.00215769 -0 0.00465046 -0 0.00465046)
(0.00465046 -0.00215771 -0 0.00465046 -0 0.00465046)
(0.00465049 -0.00215775 -0 0.00465049 -0 0.00465049)
(0.00462028 -0.00214447 -0 0.00462028 -0 0.00462028)
(0.00462027 -0.00214448 -0 0.00462028 -0 0.00462028)
(0.00462028 -0.00214451 -0 0.00462028 -0 0.00462028)
(0.00462031 -0.00214454 -0 0.0046203 -0 0.00462031)
(0.00458894 -0.00213069 -0 0.00458895 -0 0.00458894)
(0.00458894 -0.0021307 -0 0.00458894 -0 0.00458894)
(0.00458895 -0.00213073 -0 0.00458894 -0 0.00458894)
(0.00458897 -0.00213075 -0 0.00458896 -0 0.00458897)
(0.00455656 -0.00211638 -0 0.00455656 -0 0.00455656)
(0.00455656 -0.00211638 -0 0.00455656 -0 0.00455656)
(0.00455657 -0.0021164 -0 0.00455656 -0 0.00455656)
(0.00455658 -0.00211642 -0 0.00455658 -0 0.00455658)
(0.00452323 -0.00210155 -0 0.00452323 -0 0.00452323)
(0.00452323 -0.00210155 -0 0.00452323 -0 0.00452323)
(0.00452324 -0.00210157 -0 0.00452323 -0 0.00452323)
(0.00452325 -0.00210158 -0 0.00452324 -0 0.00452324)
(0.00448903 -0.00208634 -0 0.00448903 -0 0.00448903)
(0.00448903 -0.00208634 -0 0.00448903 -0 0.00448903)
(0.00448904 -0.00208636 -0 0.00448904 -0 0.00448904)
(0.00448904 -0.00208635 -0 0.00448904 -0 0.00448904)
(0.00445403 -0.00207113 -0 0.00445403 -0 0.00445403)
(0.00445403 -0.00207113 -0 0.00445403 -0 0.00445403)
(0.00445404 -0.00207113 -0 0.00445404 -0 0.00445404)
(0.00445404 -0.00207113 -0 0.00445404 -0 0.00445404)
(0.00441826 -0.00205449 -0 0.00441826 -0 0.00441826)
(0.00441826 -0.00205449 -0 0.00441826 -0 0.00441826)
(0.00441827 -0.0020545 -0 0.00441828 -0 0.00441828)
(0.00441827 -0.00205449 -0 0.00441827 -0 0.00441827)
(0.00438171 -0.0020375 -0 0.00438171 -0 0.00438171)
(0.00438171 -0.0020375 -0 0.00438171 -0 0.00438171)
(0.00438173 -0.0020375 -0 0.00438173 -0 0.00438173)
(0.00438171 -0.0020375 -0 0.00438171 -0 0.00438171)
(0.00434437 -0.00202013 -0 0.00434437 -0 0.00434437)
(0.00434438 -0.00202014 -0 0.00434438 -0 0.00434438)
(0.00434439 -0.00202014 -0 0.00434439 -0 0.00434439)
(0.00434437 -0.00202013 -0 0.00434437 -0 0.00434437)
(0.00430623 -0.0020024 -0 0.00430623 -0 0.00430623)
(0.00430624 -0.0020024 -0 0.00430624 -0 0.00430624)
(0.00430626 -0.00200241 -0 0.00430626 -0 0.00430626)
(0.00430623 -0.0020024 -0 0.00430623 -0 0.00430623)
(0.00426728 -0.00198428 -0 0.00426728 -0 0.00426728)
(0.00426729 -0.00198429 -0 0.00426729 -0 0.00426729)
(0.00426731 -0.0019843 -0 0.00426731 -0 0.00426731)
(0.00426727 -0.00198428 -0 0.00426727 -0 0.00426727)
(0.00422751 -0.00196579 -0 0.0042275 -0 0.0042275)
(0.00422751 -0.00196579 -0 0.00422751 -0 0.00422751)
(0.00422754 -0.0019658 -0 0.00422754 -0 0.00422754)
(0.0042275 -0.00196579 -0 0.0042275 -0 0.0042275)
(0.0041869 -0.00194691 -0 0.0041869 -0 0.0041869)
(0.00418691 -0.00194691 -0 0.00418691 -0 0.00418691)
(0.00418693 -0.00194693 -0 0.00418694 -0 0.00418694)
(0.00418689 -0.00194691 -0 0.00418689 -0 0.00418689)
(0.00414547 -0.00192764 -0 0.00414546 -0 0.00414546)
(0.00414548 -0.00192765 -0 0.00414548 -0 0.00414548)
(0.0041455 -0.00192766 -0 0.0041455 -0 0.0041455)
(0.00414546 -0.00192764 -0 0.00414546 -0 0.00414546)
(0.0041032 -0.00190799 -0 0.0041032 -0 0.0041032)
(0.00410321 -0.00190799 -0 0.00410321 -0 0.00410321)
(0.00410324 -0.00190801 -0 0.00410324 -0 0.00410324)
(0.00410319 -0.00190798 -0 0.00410319 -0 0.00410319)
(0.00406011 -0.00188795 -0 0.00406011 -0 0.00406011)
(0.00406013 -0.00188796 -0 0.00406012 -0 0.00406012)
(0.00406016 -0.00188797 -0 0.00406016 -0 0.00406016)
(0.0040601 -0.00188795 -0 0.0040601 -0 0.0040601)
(0.00401623 -0.00186755 -0 0.00401623 -0 0.00401623)
(0.00401625 -0.00186755 -0 0.00401625 -0 0.00401625)
(0.00401628 -0.00186757 -0 0.00401628 -0 0.00401628)
(0.00401622 -0.00186754 -0 0.00401623 -0 0.00401623)
(0.00397161 -0.0018468 -0 0.0039716 -0 0.0039716)
(0.00397162 -0.0018468 -0 0.00397162 -0 0.00397162)
(0.00397166 -0.00184682 -0 0.00397166 -0 0.00397166)
(0.0039716 -0.00184679 -0 0.0039716 -0 0.0039716)
(0.0039263 -0.00182573 -0 0.0039263 -0 0.0039263)
(0.00392632 -0.00182574 -0 0.00392632 -0 0.00392632)
(0.00392636 -0.00182576 -0 0.00392636 -0 0.00392636)
(0.00392629 -0.00182573 -0 0.0039263 -0 0.00392629)
(0.00388042 -0.0018044 -0 0.00388042 -0 0.00388042)
(0.00388044 -0.0018044 -0 0.00388044 -0 0.00388044)
(0.00388048 -0.00180442 -0 0.00388048 -0 0.00388048)
(0.00388041 -0.00180439 -0 0.00388041 -0 0.00388041)
(0.0038341 -0.00178285 -0 0.00383409 -0 0.00383409)
(0.00383411 -0.00178286 -0 0.00383412 -0 0.00383411)
(0.00383415 -0.00178288 -0 0.00383415 -0 0.00383415)
(0.00383409 -0.00178285 -0 0.00383408 -0 0.00383408)
(0.00378748 -0.00176118 -0 0.00378748 -0 0.00378748)
(0.00378749 -0.00176119 -0 0.0037875 -0 0.00378749)
(0.00378753 -0.0017612 -0 0.00378753 -0 0.00378753)
(0.00378747 -0.00176117 -0 0.00378746 -0 0.00378747)
(0.00374073 -0.00173944 -0 0.00374074 -0 0.00374073)
(0.00374074 -0.00173945 -0 0.00374076 -0 0.00374075)
(0.00374079 -0.00173946 -0 0.00374077 -0 0.00374078)
(0.00374074 -0.00173944 -0 0.00374072 -0 0.00374073)
(0.00369399 -0.00171771 -0 0.00369403 -0 0.00369401)
(0.00369401 -0.00171772 -0 0.00369403 -0 0.00369402)
(0.00369406 -0.00171773 -0 0.00369403 -0 0.00369405)
(0.00369402 -0.00171771 -0 0.003694 -0 0.00369401)
(0.00364736 -0.00169604 -0 0.00364741 -0 0.00364739)
(0.00364738 -0.00169604 -0 0.00364741 -0 0.00364739)
(0.00364745 -0.00169605 -0 0.0036474 -0 0.00364742)
(0.00364741 -0.00169604 -0 0.00364738 -0 0.0036474)
(0.0036008 -0.00167236 -0 0.00360085 -0 0.00360083)
(0.00360081 -0.0016723 -0 0.00360085 -0 0.00360083)
(0.00360088 -0.00167224 -0 0.00360083 -0 0.00360085)
(0.00360085 -0.00167181 -0 0.00360082 -0 0.00360084)
(0.0035542 -0.00164752 -0 0.00355425 -0 0.00355422)
(0.00355421 -0.00164742 -0 0.00355424 -0 0.00355423)
(0.00355427 -0.00164736 -0 0.00355423 -0 0.00355425)
(0.00355424 -0.00164709 -0 0.00355421 -0 0.00355422)
(0.00350753 -0.00162341 -0 0.00350756 -0 0.00350755)
(0.00350754 -0.00162329 -0 0.00350757 -0 0.00350755)
(0.00350759 -0.00162321 -0 0.00350756 -0 0.00350757)
(0.00350755 -0.00162289 -0 0.00350753 -0 0.00350754)
(0.0034608 -0.00159888 -0 0.00346082 -0 0.00346081)
(0.0034608 -0.00159875 -0 0.00346082 -0 0.00346081)
(0.00346084 -0.00159865 -0 0.00346082 -0 0.00346083)
(0.00346081 -0.0015983 -0 0.00346078 -0 0.00346079)
(0.003414 -0.00157392 -0 0.00341402 -0 0.00341401)
(0.00341401 -0.00157382 -0 0.00341403 -0 0.00341402)
(0.00341404 -0.0015737 -0 0.00341403 -0 0.00341404)
(0.003414 -0.00157331 -0 0.00341398 -0 0.00341399)
(0.00336717 -0.00154858 -0 0.00336717 -0 0.00336717)
(0.00336717 -0.00154848 -0 0.00336719 -0 0.00336718)
(0.0033672 -0.00154834 -0 0.0033672 -0 0.0033672)
(0.00336716 -0.00154794 -0 0.00336714 -0 0.00336715)
(0.0033203 -0.00152281 -0 0.0033203 -0 0.0033203)
(0.00332031 -0.00152273 -0 0.00332032 -0 0.00332031)
(0.00332033 -0.00152257 -0 0.00332033 -0 0.00332033)
(0.00332028 -0.00152217 -0 0.00332027 -0 0.00332028)
(0.00327341 -0.00149664 -0 0.0032734 -0 0.00327341)
(0.00327342 -0.00149658 -0 0.00327343 -0 0.00327342)
(0.00327344 -0.00149641 -0 0.00327344 -0 0.00327344)
(0.00327339 -0.001496 -0 0.00327338 -0 0.00327338)
(0.00322651 -0.00147006 -0 0.0032265 -0 0.0032265)
(0.00322653 -0.00147 -0 0.00322653 -0 0.00322653)
(0.00322653 -0.00146984 -0 0.00322654 -0 0.00322654)
(0.00322649 -0.00146943 -0 0.00322648 -0 0.00322648)
(0.00317962 -0.00144307 -0 0.0031796 -0 0.00317961)
(0.00317963 -0.00144302 -0 0.00317963 -0 0.00317963)
(0.00317964 -0.00144287 -0 0.00317965 -0 0.00317965)
(0.00317959 -0.00144245 -0 0.00317959 -0 0.00317959)
(0.00313275 -0.00141566 -0 0.00313273 -0 0.00313274)
(0.00313277 -0.00141563 -0 0.00313276 -0 0.00313277)
(0.00313277 -0.00141548 -0 0.00313279 -0 0.00313278)
(0.00313272 -0.00141508 -0 0.00313273 -0 0.00313272)
(0.00308592 -0.00138785 -0 0.00308591 -0 0.00308592)
(0.00308594 -0.00138783 -0 0.00308594 -0 0.00308594)
(0.00308594 -0.00138769 -0 0.00308596 -0 0.00308595)
(0.0030859 -0.00138729 -0 0.0030859 -0 0.0030859)
(0.00303917 -0.00135962 -0 0.00303915 -0 0.00303916)
(0.00303919 -0.00135961 -0 0.00303918 -0 0.00303918)
(0.00303919 -0.00135948 -0 0.0030392 -0 0.0030392)
(0.00303914 -0.0013591 -0 0.00303915 -0 0.00303914)
(0.0029925 -0.00133097 -0 0.00299248 -0 0.00299249)
(0.00299252 -0.00133097 -0 0.00299251 -0 0.00299252)
(0.00299252 -0.00133086 -0 0.00299254 -0 0.00299253)
(0.00299247 -0.00133048 -0 0.00299248 -0 0.00299248)
(0.00294595 -0.00130191 -0 0.00294594 -0 0.00294595)
(0.00294597 -0.00130191 -0 0.00294596 -0 0.00294597)
(0.00294597 -0.00130181 -0 0.00294599 -0 0.00294598)
(0.00294593 -0.00130145 -0 0.00294594 -0 0.00294593)
(0.00289956 -0.00127241 -0 0.00289954 -0 0.00289955)
(0.00289958 -0.00127242 -0 0.00289956 -0 0.00289957)
(0.00289958 -0.00127233 -0 0.00289959 -0 0.00289958)
(0.00289953 -0.00127199 -0 0.00289955 -0 0.00289954)
(0.00285334 -0.00124249 -0 0.00285333 -0 0.00285333)
(0.00285336 -0.0012425 -0 0.00285335 -0 0.00285335)
(0.00285336 -0.00124243 -0 0.00285338 -0 0.00285337)
(0.00285332 -0.0012421 -0 0.00285333 -0 0.00285333)
(0.00280735 -0.00121215 -0 0.00280733 -0 0.00280734)
(0.00280736 -0.00121214 -0 0.00280735 -0 0.00280736)
(0.00280736 -0.00121209 -0 0.00280738 -0 0.00280737)
(0.00280733 -0.00121178 -0 0.00280734 -0 0.00280733)
(0.0027616 -0.00118135 -0 0.00276159 -0 0.0027616)
(0.00276162 -0.00118135 -0 0.00276161 -0 0.00276161)
(0.00276162 -0.00118131 -0 0.00276164 -0 0.00276163)
(0.00276159 -0.00118102 -0 0.0027616 -0 0.00276159)
(0.00271616 -0.00115011 -0 0.00271615 -0 0.00271615)
(0.00271617 -0.00115012 -0 0.00271616 -0 0.00271617)
(0.00271618 -0.00115008 -0 0.00271619 -0 0.00271618)
(0.00271614 -0.00114981 -0 0.00271616 -0 0.00271615)
(0.00267106 -0.00111843 -0 0.00267105 -0 0.00267105)
(0.00267107 -0.00111843 -0 0.00267105 -0 0.00267106)
(0.00267107 -0.0011184 -0 0.00267108 -0 0.00267108)
(0.00267104 -0.00111815 -0 0.00267105 -0 0.00267105)
(0.00262634 -0.00108628 -0 0.00262633 -0 0.00262633)
(0.00262635 -0.00108629 -0 0.00262634 -0 0.00262634)
(0.00262636 -0.00108627 -0 0.00262636 -0 0.00262636)
(0.00262632 -0.00108604 -0 0.00262634 -0 0.00262633)
(0.00258206 -0.00105368 -0 0.00258205 -0 0.00258205)
(0.00258207 -0.0010537 -0 0.00258206 -0 0.00258206)
(0.00258208 -0.00105367 -0 0.00258208 -0 0.00258208)
(0.00258205 -0.00105347 -0 0.00258206 -0 0.00258205)
(0.00253827 -0.00102062 -0 0.00253826 -0 0.00253827)
(0.00253828 -0.00102063 -0 0.00253827 -0 0.00253827)
(0.00253829 -0.00102061 -0 0.00253829 -0 0.00253829)
(0.00253826 -0.00102043 -0 0.00253827 -0 0.00253827)
(0.00249503 -0.00098708 -0 0.00249502 -0 0.00249503)
(0.00249504 -0.000987094 -0 0.00249503 -0 0.00249503)
(0.00249504 -0.00098708 -0 0.00249505 -0 0.00249505)
(0.00249502 -0.000986922 -0 0.00249503 -0 0.00249503)
(0.0024524 -0.000953067 -0 0.0024524 -0 0.0024524)
(0.00245241 -0.000953082 -0 0.0024524 -0 0.0024524)
(0.00245241 -0.000953072 -0 0.00245242 -0 0.00245242)
(0.00245239 -0.000952935 -0 0.0024524 -0 0.0024524)
(0.00241045 -0.000918573 -0 0.00241044 -0 0.00241044)
(0.00241045 -0.000918588 -0 0.00241044 -0 0.00241045)
(0.00241046 -0.000918582 -0 0.00241046 -0 0.00241046)
(0.00241044 -0.000918463 -0 0.00241045 -0 0.00241044)
(0.00236923 -0.00088359 -0 0.00236923 -0 0.00236923)
(0.00236924 -0.000883606 -0 0.00236923 -0 0.00236923)
(0.00236924 -0.000883603 -0 0.00236925 -0 0.00236925)
(0.00236923 -0.000883503 -0 0.00236923 -0 0.00236923)
(0.00232884 -0.000848113 -0 0.00232883 -0 0.00232883)
(0.00232884 -0.00084813 -0 0.00232883 -0 0.00232884)
(0.00232884 -0.00084813 -0 0.00232885 -0 0.00232885)
(0.00232883 -0.000848046 -0 0.00232884 -0 0.00232883)
(0.00228933 -0.000812136 -0 0.00228933 -0 0.00228933)
(0.00228934 -0.000812152 -0 0.00228933 -0 0.00228933)
(0.00228934 -0.000812156 -0 0.00228934 -0 0.00228934)
(0.00228933 -0.000812088 -0 0.00228933 -0 0.00228933)
(0.0022508 -0.000775651 -0 0.0022508 -0 0.0022508)
(0.00225081 -0.000775669 -0 0.0022508 -0 0.0022508)
(0.00225081 -0.000775674 -0 0.00225081 -0 0.00225081)
(0.0022508 -0.000775621 -0 0.0022508 -0 0.0022508)
(0.00221333 -0.000738653 -0 0.00221333 -0 0.00221333)
(0.00221334 -0.000738671 -0 0.00221333 -0 0.00221333)
(0.00221334 -0.000738677 -0 0.00221334 -0 0.00221334)
(0.00221333 -0.000738638 -0 0.00221334 -0 0.00221333)
(0.00217701 -0.000701134 -0 0.00217701 -0 0.00217701)
(0.00217702 -0.000701151 -0 0.00217701 -0 0.00217701)
(0.00217702 -0.000701159 -0 0.00217702 -0 0.00217702)
(0.00217701 -0.000701132 -0 0.00217701 -0 0.00217701)
(0.00214193 -0.000663089 -0 0.00214193 -0 0.00214193)
(0.00214194 -0.000663103 -0 0.00214193 -0 0.00214194)
(0.00214194 -0.000663116 -0 0.00214194 -0 0.00214194)
(0.00214193 -0.000663096 -0 0.00214194 -0 0.00214193)
(0.0021082 -0.000624507 -0 0.00210819 -0 0.00210819)
(0.0021082 -0.00062452 -0 0.00210819 -0 0.0021082)
(0.0021082 -0.000624534 -0 0.0021082 -0 0.0021082)
(0.00210819 -0.000624523 -0 0.0021082 -0 0.0021082)
(0.0020759 -0.000585382 -0 0.0020759 -0 0.0020759)
(0.0020759 -0.000585392 -0 0.0020759 -0 0.0020759)
(0.0020759 -0.00058541 -0 0.0020759 -0 0.0020759)
(0.0020759 -0.000585405 -0 0.0020759 -0 0.0020759)
(0.00204514 -0.000545707 -0 0.00204514 -0 0.00204514)
(0.00204514 -0.000545715 -0 0.00204514 -0 0.00204514)
(0.00204514 -0.000545733 -0 0.00204514 -0 0.00204514)
(0.00204514 -0.000545735 -0 0.00204514 -0 0.00204514)
(0.00201604 -0.000505472 -0 0.00201604 -0 0.00201604)
(0.00201604 -0.000505478 -0 0.00201604 -0 0.00201604)
(0.00201604 -0.000505496 -0 0.00201604 -0 0.00201604)
(0.00201604 -0.000505503 -0 0.00201604 -0 0.00201604)
(0.0019887 -0.000464669 -0 0.0019887 -0 0.0019887)
(0.0019887 -0.000464675 -0 0.0019887 -0 0.0019887)
(0.0019887 -0.000464692 -0 0.0019887 -0 0.0019887)
(0.0019887 -0.000464702 -0 0.0019887 -0 0.0019887)
(0.00196323 -0.00042329 -0 0.00196324 -0 0.00196323)
(0.00196323 -0.000423298 -0 0.00196324 -0 0.00196323)
(0.00196324 -0.00042331 -0 0.00196323 -0 0.00196324)
(0.00196324 -0.000423324 -0 0.00196324 -0 0.00196324)
(0.00193976 -0.000381326 -0 0.00193976 -0 0.00193976)
(0.00193976 -0.000381332 -0 0.00193976 -0 0.00193976)
(0.00193976 -0.000381343 -0 0.00193976 -0 0.00193976)
(0.00193977 -0.000381358 -0 0.00193976 -0 0.00193976)
(0.0019184 -0.000338768 -0 0.0019184 -0 0.0019184)
(0.0019184 -0.000338771 -0 0.0019184 -0 0.0019184)
(0.0019184 -0.000338783 -0 0.0019184 -0 0.0019184)
(0.0019184 -0.000338798 -0 0.0019184 -0 0.0019184)
(0.00189927 -0.000295607 -0 0.00189927 -0 0.00189927)
(0.00189926 -0.000295609 -0 0.00189927 -0 0.00189927)
(0.00189927 -0.000295618 -0 0.00189926 -0 0.00189927)
(0.00189927 -0.000295634 -0 0.00189927 -0 0.00189927)
(0.00188249 -0.000251831 -0 0.00188249 -0 0.00188249)
(0.00188248 -0.000251836 -0 0.00188249 -0 0.00188248)
(0.00188249 -0.00025184 -0 0.00188248 -0 0.00188249)
(0.00188249 -0.000251856 -0 0.00188249 -0 0.00188249)
(0.00186818 -0.000207434 -0 0.00186818 -0 0.00186818)
(0.00186818 -0.000207437 -0 0.00186818 -0 0.00186818)
(0.00186818 -0.000207441 -0 0.00186818 -0 0.00186818)
(0.00186819 -0.000207454 -0 0.00186818 -0 0.00186818)
(0.00185648 -0.000162405 -0 0.00185648 -0 0.00185648)
(0.00185648 -0.000162407 -0 0.00185648 -0 0.00185648)
(0.00185648 -0.00016241 -0 0.00185648 -0 0.00185648)
(0.00185648 -0.000162421 -0 0.00185648 -0 0.00185648)
(0.00184751 -0.000116734 -0 0.00184751 -0 0.00184751)
(0.00184751 -0.000116736 -0 0.00184751 -0 0.00184751)
(0.00184751 -0.000116738 -0 0.00184751 -0 0.00184751)
(0.00184751 -0.000116745 -0 0.00184751 -0 0.00184751)
(0.0018414 -7.04125e-05 -0 0.0018414 -0 0.0018414)
(0.00184139 -7.04124e-05 -0 0.0018414 -0 0.0018414)
(0.0018414 -7.04143e-05 -0 0.00184139 -0 0.00184139)
(0.0018414 -7.04186e-05 -0 0.0018414 -0 0.0018414)
(0.00183827 -2.35437e-05 -0 0.00183827 -0 0.00183827)
(0.00183827 -2.35439e-05 -0 0.00183827 -0 0.00183827)
(0.00183827 -2.35444e-05 -0 0.00183827 -0 0.00183827)
(0.00183828 -2.35459e-05 -0 0.00183827 -0 0.00183827)
)
;

boundaryField
{
    inlet
    {
        type            cyclic;
    }
    outlet
    {
        type            cyclic;
    }
    fixedWalls-bottom
    {
        type            kqRWallFunction;
        value           nonuniform List<symmTensor> 4((8.24025e-06 -0 -0 8.24025e-06 -0 8.24025e-06) (8.24062e-06 -0 -0 8.24062e-06 -0 8.24062e-06) (8.24027e-06 -0 -0 8.24027e-06 -0 8.24027e-06) (8.24015e-06 -0 -0 8.24015e-06 -0 8.24015e-06));
    }
    fixedWalls-top
    {
        type            symmetry;
    }
    frontAndBack
    {
        type            empty;
    }
}


// ************************************************************************* //
