/*--------------------------------*- C++ -*----------------------------------*\
  =========                 |
  \\      /  F ield         | OpenFOAM: The Open Source CFD Toolbox
   \\    /   O peration     | Website:  https://openfoam.org
    \\  /    A nd           | Version:  10
     \\/     M anipulation  |
\*---------------------------------------------------------------------------*/
FoamFile
{
    format      ascii;
    class       volVectorField;
    location    "5195";
    object      U;
}
// * * * * * * * * * * * * * * * * * * * * * * * * * * * * * * * * * * * * * //

dimensions      [0 1 -1 0 0 0 0];

internalField   nonuniform List<vector> 
400
(
(0.0770337 -5.26516e-10 0)
(0.0770343 -2.84566e-10 0)
(0.0770338 5.22972e-10 0)
(0.0770333 2.84624e-10 0)
(0.229827 -1.0124e-08 0)
(0.229829 -1.37054e-09 0)
(0.229827 1.01161e-08 0)
(0.229826 1.37071e-09 0)
(0.365091 -2.79761e-08 0)
(0.365092 -3.06623e-10 0)
(0.36509 2.79691e-08 0)
(0.365088 3.06869e-10 0)
(0.463365 -4.78623e-08 0)
(0.463366 2.28371e-09 0)
(0.463364 4.78558e-08 0)
(0.463362 -2.28336e-09 0)
(0.53214 -6.54423e-08 0)
(0.532141 6.90761e-09 0)
(0.532139 6.54361e-08 0)
(0.532138 -6.90719e-09 0)
(0.582968 -7.91762e-08 0)
(0.582969 1.18569e-08 0)
(0.582967 7.91701e-08 0)
(0.582966 -1.18564e-08 0)
(0.622339 -8.85365e-08 0)
(0.622339 1.72419e-08 0)
(0.622338 8.85306e-08 0)
(0.622337 -1.72414e-08 0)
(0.654074 -9.34199e-08 0)
(0.654073 2.41309e-08 0)
(0.654072 9.3414e-08 0)
(0.654073 -2.41304e-08 0)
(0.680507 -9.39406e-08 0)
(0.680506 3.274e-08 0)
(0.680505 9.39349e-08 0)
(0.680506 -3.27395e-08 0)
(0.703145 -9.10663e-08 0)
(0.703144 4.05615e-08 0)
(0.703143 9.10608e-08 0)
(0.703145 -4.05609e-08 0)
(0.722971 -8.51806e-08 0)
(0.72297 4.78148e-08 0)
(0.72297 8.5175e-08 0)
(0.722972 -4.78142e-08 0)
(0.740623 -7.77063e-08 0)
(0.740622 5.26152e-08 0)
(0.740622 7.77009e-08 0)
(0.740624 -5.26146e-08 0)
(0.756537 -6.92063e-08 0)
(0.756536 5.61249e-08 0)
(0.756536 6.92009e-08 0)
(0.756538 -5.61243e-08 0)
(0.771032 -6.02931e-08 0)
(0.771032 5.90233e-08 0)
(0.771032 6.02878e-08 0)
(0.771033 -5.90226e-08 0)
(0.78435 -5.13912e-08 0)
(0.784349 6.14814e-08 0)
(0.78435 5.1386e-08 0)
(0.784351 -6.14807e-08 0)
(0.796675 -4.28427e-08 0)
(0.796674 6.36704e-08 0)
(0.796674 4.28376e-08 0)
(0.796675 -6.36698e-08 0)
(0.808151 -3.49339e-08 0)
(0.80815 6.56453e-08 0)
(0.80815 3.49288e-08 0)
(0.808152 -6.56446e-08 0)
(0.818894 -2.78891e-08 0)
(0.818894 6.73463e-08 0)
(0.818894 2.78841e-08 0)
(0.818895 -6.73456e-08 0)
(0.828998 -2.18484e-08 0)
(0.828997 6.86917e-08 0)
(0.828998 2.18435e-08 0)
(0.828998 -6.8691e-08 0)
(0.838538 -1.68949e-08 0)
(0.838538 6.95728e-08 0)
(0.838538 1.689e-08 0)
(0.838539 -6.95721e-08 0)
(0.847579 -1.30465e-08 0)
(0.847579 6.99313e-08 0)
(0.847579 1.30416e-08 0)
(0.847579 -6.99306e-08 0)
(0.856172 -1.02838e-08 0)
(0.856172 6.97214e-08 0)
(0.856172 1.0279e-08 0)
(0.856172 -6.97207e-08 0)
(0.864363 -8.5568e-09 0)
(0.864363 6.8914e-08 0)
(0.864363 8.55209e-09 0)
(0.864363 -6.89132e-08 0)
(0.87219 -7.7884e-09 0)
(0.872189 6.75026e-08 0)
(0.87219 7.78375e-09 0)
(0.87219 -6.75019e-08 0)
(0.879684 -7.87868e-09 0)
(0.879684 6.55109e-08 0)
(0.879684 7.87409e-09 0)
(0.879684 -6.55101e-08 0)
(0.886875 -8.71261e-09 0)
(0.886875 6.30164e-08 0)
(0.886875 8.70808e-09 0)
(0.886875 -6.30156e-08 0)
(0.893786 -1.01448e-08 0)
(0.893786 6.01922e-08 0)
(0.893787 1.01403e-08 0)
(0.893786 -6.01914e-08 0)
(0.90044 -1.20055e-08 0)
(0.90044 5.7302e-08 0)
(0.90044 1.20011e-08 0)
(0.90044 -5.73011e-08 0)
(0.906854 -1.40916e-08 0)
(0.906854 5.46314e-08 0)
(0.906855 1.40873e-08 0)
(0.906854 -5.46305e-08 0)
(0.913046 -1.61217e-08 0)
(0.913046 5.24677e-08 0)
(0.913046 1.61174e-08 0)
(0.913046 -5.24669e-08 0)
(0.91903 -1.77064e-08 0)
(0.91903 5.09492e-08 0)
(0.91903 1.77021e-08 0)
(0.91903 -5.09484e-08 0)
(0.924819 -1.86065e-08 0)
(0.924819 4.98838e-08 0)
(0.924819 1.86023e-08 0)
(0.924819 -4.9883e-08 0)
(0.930431 -1.86578e-08 0)
(0.930431 4.91771e-08 0)
(0.930431 1.86536e-08 0)
(0.930431 -4.91763e-08 0)
(0.93588 -1.79669e-08 0)
(0.93588 4.85746e-08 0)
(0.93588 1.79628e-08 0)
(0.93588 -4.85738e-08 0)
(0.94118 -1.67535e-08 0)
(0.94118 4.80632e-08 0)
(0.94118 1.67494e-08 0)
(0.94118 -4.80623e-08 0)
(0.94634 -1.52336e-08 0)
(0.94634 4.76758e-08 0)
(0.94634 1.52296e-08 0)
(0.94634 -4.7675e-08 0)
(0.951368 -1.35833e-08 0)
(0.951368 4.74058e-08 0)
(0.951368 1.35794e-08 0)
(0.951368 -4.74049e-08 0)
(0.956271 -1.19376e-08 0)
(0.956271 4.72144e-08 0)
(0.956271 1.19337e-08 0)
(0.956271 -4.72135e-08 0)
(0.961055 -1.04007e-08 0)
(0.961055 4.70746e-08 0)
(0.961055 1.03969e-08 0)
(0.961055 -4.70737e-08 0)
(0.965725 -9.04598e-09 0)
(0.965725 4.70176e-08 0)
(0.965725 9.04223e-09 0)
(0.965725 -4.70167e-08 0)
(0.970286 -7.89169e-09 0)
(0.970286 4.71614e-08 0)
(0.970286 7.88799e-09 0)
(0.970286 -4.71605e-08 0)
(0.974741 -6.84954e-09 0)
(0.974741 4.76984e-08 0)
(0.974741 6.84589e-09 0)
(0.974741 -4.76975e-08 0)
(0.979091 -5.66921e-09 0)
(0.979091 4.88152e-08 0)
(0.979091 5.66561e-09 0)
(0.979091 -4.88143e-08 0)
(0.98334 -3.93269e-09 0)
(0.983339 5.05367e-08 0)
(0.983339 3.92913e-09 0)
(0.98334 -5.05357e-08 0)
(0.987485 -1.17716e-09 0)
(0.987484 5.25169e-08 0)
(0.987485 1.17367e-09 0)
(0.987485 -5.2516e-08 0)
(0.991525 2.78144e-09 0)
(0.991525 5.38647e-08 0)
(0.991525 -2.78484e-09 0)
(0.991526 -5.38639e-08 0)
(0.995459 7.31297e-09 0)
(0.995458 5.31562e-08 0)
(0.995459 -7.31635e-09 0)
(0.995459 -5.31554e-08 0)
(0.999282 1.0356e-08 0)
(0.999282 4.88111e-08 0)
(0.999282 -1.03595e-08 0)
(0.999282 -4.881e-08 0)
(1.00299 8.14975e-09 0)
(1.00299 3.9877e-08 0)
(1.00299 -8.15313e-09 0)
(1.00299 -3.98755e-08 0)
(1.00659 -3.64293e-09 0)
(1.00659 2.68451e-08 0)
(1.00659 3.64006e-09 0)
(1.00659 -2.68436e-08 0)
(1.01008 -2.60514e-08 0)
(1.01008 1.15162e-08 0)
(1.01008 2.60483e-08 0)
(1.01008 -1.15165e-08 0)
(1.01347 -5.15623e-08 0)
(1.01347 -4.86541e-09 0)
(1.01347 5.15588e-08 0)
(1.01347 4.86554e-09 0)
(1.01678 -7.74318e-08 0)
(1.01678 -2.04759e-08 0)
(1.01678 7.74287e-08 0)
(1.01678 2.04775e-08 0)
(1.02001 -9.56785e-08 0)
(1.02001 -3.53632e-08 0)
(1.02001 9.56755e-08 0)
(1.02001 3.53643e-08 0)
(1.02317 -1.07867e-07 0)
(1.02317 -4.90374e-08 0)
(1.02317 1.07864e-07 0)
(1.02317 4.90383e-08 0)
(1.02626 -1.15465e-07 0)
(1.02626 -6.07004e-08 0)
(1.02626 1.15462e-07 0)
(1.02626 6.07014e-08 0)
(1.02928 -1.19361e-07 0)
(1.02928 -6.9977e-08 0)
(1.02928 1.19358e-07 0)
(1.02928 6.9978e-08 0)
(1.03223 -1.20017e-07 0)
(1.03223 -7.6424e-08 0)
(1.03223 1.20014e-07 0)
(1.03223 7.6425e-08 0)
(1.03512 -1.17902e-07 0)
(1.03512 -8.03056e-08 0)
(1.03512 1.17899e-07 0)
(1.03512 8.03066e-08 0)
(1.03795 -1.13533e-07 0)
(1.03795 -8.20434e-08 0)
(1.03795 1.1353e-07 0)
(1.03795 8.20444e-08 0)
(1.04072 -1.07349e-07 0)
(1.04072 -8.20537e-08 0)
(1.04072 1.07346e-07 0)
(1.04072 8.20546e-08 0)
(1.04343 -9.99269e-08 0)
(1.04343 -8.06698e-08 0)
(1.04343 9.99242e-08 0)
(1.04343 8.06708e-08 0)
(1.04608 -9.17458e-08 0)
(1.04608 -7.80993e-08 0)
(1.04608 9.17431e-08 0)
(1.04608 7.81003e-08 0)
(1.04867 -8.32013e-08 0)
(1.04867 -7.45032e-08 0)
(1.04867 8.31987e-08 0)
(1.04867 7.45042e-08 0)
(1.05121 -7.46038e-08 0)
(1.05121 -7.00261e-08 0)
(1.05121 7.46012e-08 0)
(1.05121 7.00271e-08 0)
(1.0537 -6.61644e-08 0)
(1.0537 -6.4806e-08 0)
(1.0537 6.61619e-08 0)
(1.0537 6.4807e-08 0)
(1.05613 -5.80011e-08 0)
(1.05613 -5.89804e-08 0)
(1.05613 5.79986e-08 0)
(1.05613 5.89814e-08 0)
(1.05851 -5.02146e-08 0)
(1.05851 -5.27056e-08 0)
(1.05851 5.02122e-08 0)
(1.05851 5.27065e-08 0)
(1.06083 -4.3058e-08 0)
(1.06083 -4.62374e-08 0)
(1.06083 4.30557e-08 0)
(1.06083 4.62383e-08 0)
(1.0631 -3.65813e-08 0)
(1.0631 -3.97857e-08 0)
(1.0631 3.6579e-08 0)
(1.0631 3.97866e-08 0)
(1.06532 -3.09549e-08 0)
(1.06532 -3.35931e-08 0)
(1.06532 3.09527e-08 0)
(1.06532 3.35941e-08 0)
(1.06748 -2.60712e-08 0)
(1.06748 -2.77195e-08 0)
(1.06748 2.6069e-08 0)
(1.06748 2.77204e-08 0)
(1.06959 -2.17766e-08 0)
(1.06959 -2.204e-08 0)
(1.06959 2.17745e-08 0)
(1.0696 2.20409e-08 0)
(1.07165 -1.78758e-08 0)
(1.07165 -1.65825e-08 0)
(1.07165 1.78738e-08 0)
(1.07165 1.65833e-08 0)
(1.07366 -1.42559e-08 0)
(1.07366 -1.12644e-08 0)
(1.07366 1.42539e-08 0)
(1.07366 1.12652e-08 0)
(1.07561 -1.07827e-08 0)
(1.07561 -6.22339e-09 0)
(1.0756 1.07808e-08 0)
(1.07561 6.22424e-09 0)
(1.0775 -7.46749e-09 0)
(1.0775 -1.54539e-09 0)
(1.0775 7.46564e-09 0)
(1.0775 1.54622e-09 0)
(1.07934 -4.33006e-09 0)
(1.07934 2.73782e-09 0)
(1.07934 4.32827e-09 0)
(1.07934 -2.73701e-09 0)
(1.08112 -1.40111e-09 0)
(1.08112 6.61368e-09 0)
(1.08112 1.39939e-09 0)
(1.08112 -6.61288e-09 0)
(1.08284 1.27366e-09 0)
(1.08284 1.00785e-08 0)
(1.08284 -1.27531e-09 0)
(1.08284 -1.00777e-08 0)
(1.0845 3.64332e-09 0)
(1.0845 1.3137e-08 0)
(1.0845 -3.64491e-09 0)
(1.0845 -1.31363e-08 0)
(1.0861 5.69348e-09 0)
(1.0861 1.58072e-08 0)
(1.0861 -5.69499e-09 0)
(1.0861 -1.58064e-08 0)
(1.08764 7.41857e-09 0)
(1.08764 1.80939e-08 0)
(1.08764 -7.42002e-09 0)
(1.08764 -1.80932e-08 0)
(1.08911 8.84741e-09 0)
(1.08911 1.99697e-08 0)
(1.08911 -8.84878e-09 0)
(1.08911 -1.9969e-08 0)
(1.09052 1.00172e-08 0)
(1.09052 2.14418e-08 0)
(1.09052 -1.00185e-08 0)
(1.09052 -2.14411e-08 0)
(1.09186 1.09214e-08 0)
(1.09186 2.2475e-08 0)
(1.09186 -1.09227e-08 0)
(1.09186 -2.24744e-08 0)
(1.09314 1.14825e-08 0)
(1.09314 2.3102e-08 0)
(1.09313 -1.14837e-08 0)
(1.09314 -2.31014e-08 0)
(1.09433 1.16618e-08 0)
(1.09433 2.3296e-08 0)
(1.09433 -1.16628e-08 0)
(1.09433 -2.32954e-08 0)
(1.09546 1.13802e-08 0)
(1.09546 2.30474e-08 0)
(1.09546 -1.13812e-08 0)
(1.09546 -2.30469e-08 0)
(1.09651 1.07119e-08 0)
(1.09651 2.23559e-08 0)
(1.09651 -1.07128e-08 0)
(1.09651 -2.23554e-08 0)
(1.09748 9.83759e-09 0)
(1.09748 2.12374e-08 0)
(1.09748 -9.83841e-09 0)
(1.09748 -2.12369e-08 0)
(1.09836 8.83809e-09 0)
(1.09836 1.97667e-08 0)
(1.09836 -8.83882e-09 0)
(1.09836 -1.97662e-08 0)
(1.09916 7.75977e-09 0)
(1.09916 1.80055e-08 0)
(1.09916 -7.76042e-09 0)
(1.09916 -1.80051e-08 0)
(1.09988 6.60626e-09 0)
(1.09988 1.59884e-08 0)
(1.09988 -6.60681e-09 0)
(1.09988 -1.5988e-08 0)
(1.1005 5.40099e-09 0)
(1.1005 1.37877e-08 0)
(1.1005 -5.40145e-09 0)
(1.1005 -1.37874e-08 0)
(1.10103 4.21704e-09 0)
(1.10103 1.14345e-08 0)
(1.10103 -4.21741e-09 0)
(1.10103 -1.14342e-08 0)
(1.10146 3.15641e-09 0)
(1.10146 8.98599e-09 0)
(1.10146 -3.15668e-09 0)
(1.10146 -8.98579e-09 0)
(1.10179 2.20204e-09 0)
(1.10179 6.47199e-09 0)
(1.10179 -2.20222e-09 0)
(1.10179 -6.47184e-09 0)
(1.10201 1.3089e-09 0)
(1.10201 3.90472e-09 0)
(1.10201 -1.30899e-09 0)
(1.10201 -3.90464e-09 0)
(1.10213 4.39287e-10 0)
(1.10213 1.30692e-09 0)
(1.10213 -4.39304e-10 0)
(1.10213 -1.30691e-09 0)
)
;

boundaryField
{
    inlet
    {
        type            cyclic;
    }
    outlet
    {
        type            cyclic;
    }
    fixedWalls-bottom
    {
        type            noSlip;
    }
    fixedWalls-top
    {
        type            symmetry;
    }
    frontAndBack
    {
        type            empty;
    }
}


// ************************************************************************* //
