/*--------------------------------*- C++ -*----------------------------------*\
  =========                 |
  \\      /  F ield         | OpenFOAM: The Open Source CFD Toolbox
   \\    /   O peration     | Website:  https://openfoam.org
    \\  /    A nd           | Version:  10
     \\/     M anipulation  |
\*---------------------------------------------------------------------------*/
FoamFile
{
    format      ascii;
    class       volScalarField;
    location    "5000";
    object      nut;
}
// * * * * * * * * * * * * * * * * * * * * * * * * * * * * * * * * * * * * * //

dimensions      [0 2 -1 0 0 0 0];

internalField   nonuniform List<scalar> 
400
(
5.66356e-21
5.66356e-21
5.66356e-21
5.66356e-21
3.45365e-20
3.45365e-20
3.45365e-20
3.45365e-20
1.0473e-19
1.0473e-19
1.0473e-19
1.0473e-19
2.25191e-19
2.25191e-19
2.25191e-19
2.25191e-19
3.99582e-19
3.99584e-19
3.99587e-19
3.99586e-19
6.28214e-19
6.28226e-19
6.28237e-19
6.28234e-19
9.09746e-19
9.09781e-19
9.09802e-19
9.09797e-19
1.24368e-18
1.24376e-18
1.24378e-18
1.24378e-18
1.63087e-18
1.631e-18
1.63103e-18
1.63101e-18
2.07319e-18
2.07337e-18
2.0734e-18
2.07338e-18
2.57329e-18
2.57353e-18
2.57357e-18
2.57354e-18
3.13363e-18
3.13394e-18
3.13398e-18
3.13394e-18
3.75489e-18
3.75528e-18
3.75535e-18
3.75531e-18
4.43571e-18
4.43622e-18
4.43635e-18
4.4363e-18
5.17316e-18
5.17386e-18
5.17409e-18
5.17402e-18
5.96304e-18
5.964e-18
5.96441e-18
5.96431e-18
6.7999e-18
6.80125e-18
6.80192e-18
6.80178e-18
7.67718e-18
7.67907e-18
7.68012e-18
7.67995e-18
8.5874e-18
8.58998e-18
8.59158e-18
8.59137e-18
9.52239e-18
9.52585e-18
9.52817e-18
9.52795e-18
1.04736e-17
1.04782e-17
1.04815e-17
1.04813e-17
1.14327e-17
1.14385e-17
1.1443e-17
1.14429e-17
1.23916e-17
1.23987e-17
1.24048e-17
1.2405e-17
1.33428e-17
1.33513e-17
1.33593e-17
1.33599e-17
1.42801e-17
1.429e-17
1.43001e-17
1.43014e-17
1.51982e-17
1.52093e-17
1.52218e-17
1.52241e-17
1.60929e-17
1.61052e-17
1.61201e-17
1.61239e-17
1.69615e-17
1.69745e-17
1.69919e-17
1.69979e-17
1.78021e-17
1.78154e-17
1.78352e-17
1.78442e-17
1.88769e-17
1.88839e-17
1.89087e-17
1.89342e-17
2.02126e-17
2.02158e-17
2.02435e-17
2.02819e-17
2.1765e-17
2.17635e-17
2.17936e-17
2.18466e-17
2.35482e-17
2.35418e-17
2.35731e-17
2.36426e-17
2.55769e-17
2.55651e-17
2.55968e-17
2.56847e-17
2.78657e-17
2.78483e-17
2.78796e-17
2.79877e-17
3.04296e-17
3.04065e-17
3.04368e-17
3.05665e-17
3.3284e-17
3.32553e-17
3.32845e-17
3.34367e-17
3.64448e-17
3.64106e-17
3.64385e-17
3.66145e-17
3.99285e-17
3.98891e-17
3.99151e-17
4.01166e-17
4.3752e-17
4.37077e-17
4.37316e-17
4.39603e-17
4.79333e-17
4.78845e-17
4.79058e-17
4.81638e-17
5.2491e-17
5.24382e-17
5.24565e-17
5.27462e-17
5.74447e-17
5.73883e-17
5.74032e-17
5.77273e-17
6.28153e-17
6.27555e-17
6.27668e-17
6.31283e-17
6.86249e-17
6.85617e-17
6.85693e-17
6.89716e-17
7.48972e-17
7.48305e-17
7.48349e-17
7.52815e-17
8.16583e-17
8.15876e-17
8.159e-17
8.20844e-17
8.89362e-17
8.88604e-17
8.88633e-17
8.94092e-17
9.67592e-17
9.6676e-17
9.6684e-17
9.72851e-17
1.05151e-16
1.05057e-16
1.05076e-16
1.05737e-16
1.14126e-16
1.14015e-16
1.14055e-16
1.14781e-16
1.23683e-16
1.23554e-16
1.2362e-16
1.24418e-16
1.33806e-16
1.33662e-16
1.33755e-16
1.34636e-16
1.44456e-16
1.44311e-16
1.44423e-16
1.45393e-16
1.55582e-16
1.55427e-16
1.55556e-16
1.56625e-16
1.67089e-16
1.6692e-16
1.67067e-16
1.6824e-16
1.78847e-16
1.78687e-16
1.78849e-16
1.80127e-16
1.90764e-16
1.90603e-16
1.90783e-16
1.92175e-16
2.02718e-16
2.0255e-16
2.0275e-16
2.04259e-16
2.14583e-16
2.14404e-16
2.14628e-16
2.16252e-16
2.2623e-16
2.26041e-16
2.26291e-16
2.28023e-16
2.3753e-16
2.37336e-16
2.37613e-16
2.39442e-16
2.48357e-16
2.48159e-16
2.48467e-16
2.50377e-16
2.58584e-16
2.5838e-16
2.58721e-16
2.607e-16
2.68089e-16
2.67865e-16
2.6824e-16
2.70283e-16
2.76743e-16
2.7648e-16
2.76888e-16
2.79004e-16
2.84373e-16
2.84133e-16
2.84538e-16
2.8674e-16
2.90972e-16
2.90682e-16
2.911e-16
2.93401e-16
2.96435e-16
2.96045e-16
2.96501e-16
2.98876e-16
3.0058e-16
3.00178e-16
3.00645e-16
3.03067e-16
3.03344e-16
3.0302e-16
3.03444e-16
3.0591e-16
3.0467e-16
3.04561e-16
3.04828e-16
3.07354e-16
3.04535e-16
3.0489e-16
3.04728e-16
3.07374e-16
3.03039e-16
3.03453e-16
3.03288e-16
3.05954e-16
3.0016e-16
3.00488e-16
3.00435e-16
3.03103e-16
2.95895e-16
2.95952e-16
2.96205e-16
2.98863e-16
2.90218e-16
2.9058e-16
2.90345e-16
2.93309e-16
2.82927e-16
2.83781e-16
2.83254e-16
2.86455e-16
2.74756e-16
2.75655e-16
2.75185e-16
2.7831e-16
2.6553e-16
2.66458e-16
2.66027e-16
2.69066e-16
2.55372e-16
2.56314e-16
2.55908e-16
2.58858e-16
2.44423e-16
2.45365e-16
2.44974e-16
2.47832e-16
2.32839e-16
2.33769e-16
2.33386e-16
2.36148e-16
2.20787e-16
2.21696e-16
2.21314e-16
2.23976e-16
2.08445e-16
2.09319e-16
2.08935e-16
2.11497e-16
1.95994e-16
1.96816e-16
1.96431e-16
1.98892e-16
1.83623e-16
1.84365e-16
1.83996e-16
1.86344e-16
1.7153e-16
1.72137e-16
1.71853e-16
1.74024e-16
1.59936e-16
1.60275e-16
1.60306e-16
1.62083e-16
1.49132e-16
1.48827e-16
1.49608e-16
1.50686e-16
1.38777e-16
1.38469e-16
1.39296e-16
1.40156e-16
1.29311e-16
1.29006e-16
1.29811e-16
1.30589e-16
1.20882e-16
1.206e-16
1.21347e-16
1.22112e-16
1.13668e-16
1.13409e-16
1.14037e-16
1.14886e-16
1.07815e-16
1.07648e-16
1.08068e-16
1.09039e-16
1.03471e-16
1.03723e-16
1.03791e-16
1.04664e-16
1.00854e-16
1.01186e-16
1.01233e-16
1.02016e-16
1.00918e-16
1.01243e-16
1.01327e-16
1.02119e-16
1.02111e-16
1.02368e-16
1.02632e-16
1.03354e-16
1.02958e-16
1.02969e-16
1.03632e-16
1.04313e-16
)
;

boundaryField
{
    inlet
    {
        type            cyclic;
    }
    outlet
    {
        type            cyclic;
    }
    fixedWalls-bottom
    {
        type            nutkWallFunction;
        Cmu             0.09;
        kappa           0.41;
        E               9.8;
        value           uniform 0;
    }
    fixedWalls-top
    {
        type            symmetry;
    }
    frontAndBack
    {
        type            empty;
    }
}


// ************************************************************************* //
