/*--------------------------------*- C++ -*----------------------------------*\
  =========                 |
  \\      /  F ield         | OpenFOAM: The Open Source CFD Toolbox
   \\    /   O peration     | Website:  https://openfoam.org
    \\  /    A nd           | Version:  10
     \\/     M anipulation  |
\*---------------------------------------------------------------------------*/
FoamFile
{
    format      ascii;
    class       volScalarField;
    location    "5000";
    object      p;
}
// * * * * * * * * * * * * * * * * * * * * * * * * * * * * * * * * * * * * * //

dimensions      [0 2 -2 0 0 0 0];

internalField   nonuniform List<scalar> 
400
(
5.03398e-18
8.49625e-17
-2.54446e-16
-2.73162e-16
1.64968e-17
8.47617e-17
-2.54321e-16
-2.72935e-16
1.95807e-17
8.45171e-17
-2.54181e-16
-2.72678e-16
2.05304e-17
8.42827e-17
-2.54101e-16
-2.7239e-16
2.08659e-17
8.40328e-17
-2.54045e-16
-2.72125e-16
2.13031e-17
8.36734e-17
-2.54032e-16
-2.71743e-16
2.18847e-17
8.32846e-17
-2.54019e-16
-2.71312e-16
2.27149e-17
8.30088e-17
-2.5414e-16
-2.70946e-16
2.3745e-17
8.28381e-17
-2.54289e-16
-2.7078e-16
2.47723e-17
8.28486e-17
-2.54535e-16
-2.70738e-16
2.57797e-17
8.29604e-17
-2.54866e-16
-2.70745e-16
2.68589e-17
8.29912e-17
-2.55227e-16
-2.70708e-16
2.78983e-17
8.29261e-17
-2.55493e-16
-2.70629e-16
2.88273e-17
8.30246e-17
-2.55888e-16
-2.7058e-16
2.98136e-17
8.32951e-17
-2.56242e-16
-2.70834e-16
3.09196e-17
8.32627e-17
-2.56705e-16
-2.70757e-16
3.21706e-17
8.27546e-17
-2.57361e-16
-2.70144e-16
3.34081e-17
8.22789e-17
-2.58158e-16
-2.69528e-16
3.4746e-17
8.21098e-17
-2.5912e-16
-2.69127e-16
3.61155e-17
8.19531e-17
-2.6018e-16
-2.6864e-16
3.74184e-17
8.17653e-17
-2.61122e-16
-2.68282e-16
3.87567e-17
8.19056e-17
-2.61969e-16
-2.68377e-16
3.97917e-17
8.15982e-17
-2.6273e-16
-2.67944e-16
4.0469e-17
8.11263e-17
-2.63335e-16
-2.67159e-16
4.12587e-17
8.05947e-17
-2.6409e-16
-2.6619e-16
4.21746e-17
8.00718e-17
-2.64923e-16
-2.65356e-16
4.2664e-17
7.97825e-17
-2.65364e-16
-2.64733e-16
4.30573e-17
7.92919e-17
-2.65704e-16
-2.64012e-16
4.33458e-17
7.85935e-17
-2.65939e-16
-2.63052e-16
4.35481e-17
7.78055e-17
-2.66086e-16
-2.62004e-16
4.38012e-17
7.70695e-17
-2.66468e-16
-2.60878e-16
4.44776e-17
7.622e-17
-2.67041e-16
-2.59816e-16
4.54856e-17
7.55467e-17
-2.6781e-16
-2.59036e-16
4.6063e-17
7.51548e-17
-2.68466e-16
-2.5853e-16
4.69012e-17
7.52903e-17
-2.69364e-16
-2.58432e-16
4.7804e-17
7.47713e-17
-2.70059e-16
-2.57713e-16
4.84926e-17
7.39926e-17
-2.70508e-16
-2.56661e-16
4.91195e-17
7.30294e-17
-2.71057e-16
-2.55418e-16
4.96785e-17
7.19731e-17
-2.71744e-16
-2.53864e-16
5.01849e-17
7.0755e-17
-2.72409e-16
-2.52263e-16
5.05058e-17
6.97422e-17
-2.72894e-16
-2.50878e-16
5.07849e-17
6.7605e-17
-2.73373e-16
-2.4857e-16
5.10167e-17
6.63675e-17
-2.7401e-16
-2.46734e-16
5.07256e-17
6.5635e-17
-2.74358e-16
-2.45478e-16
5.0644e-17
6.44102e-17
-2.74554e-16
-2.43706e-16
5.05407e-17
6.34902e-17
-2.74724e-16
-2.42265e-16
5.06457e-17
6.232e-17
-2.75287e-16
-2.40681e-16
5.1083e-17
6.21411e-17
-2.76004e-16
-2.40235e-16
5.1724e-17
6.18571e-17
-2.76979e-16
-2.39529e-16
5.21234e-17
6.09451e-17
-2.77994e-16
-2.38113e-16
5.25059e-17
5.97289e-17
-2.78756e-16
-2.36572e-16
5.29958e-17
5.84772e-17
-2.79796e-16
-2.34575e-16
5.33674e-17
5.79856e-17
-2.80741e-16
-2.33341e-16
5.34211e-17
5.80476e-17
-2.81518e-16
-2.3285e-16
5.33731e-17
5.81612e-17
-2.82279e-16
-2.32025e-16
5.42905e-17
5.83168e-17
-2.83907e-16
-2.31294e-16
5.51069e-17
5.81821e-17
-2.85317e-16
-2.30662e-16
5.60442e-17
5.76246e-17
-2.86706e-16
-2.29509e-16
5.60825e-17
5.78042e-17
-2.87437e-16
-2.28869e-16
5.64589e-17
5.81061e-17
-2.88446e-16
-2.28928e-16
5.71615e-17
5.8919e-17
-2.89652e-16
-2.29679e-16
5.76116e-17
5.8172e-17
-2.90704e-16
-2.2817e-16
5.80044e-17
5.68024e-17
-2.91116e-16
-2.26783e-16
5.8357e-17
5.52203e-17
-2.91958e-16
-2.24747e-16
5.79124e-17
5.47431e-17
-2.92112e-16
-2.23595e-16
5.74499e-17
5.30743e-17
-2.91854e-16
-2.21997e-16
5.75189e-17
5.05982e-17
-2.91914e-16
-2.19606e-16
5.79418e-17
4.80356e-17
-2.92001e-16
-2.17708e-16
5.8888e-17
4.62655e-17
-2.92453e-16
-2.16482e-16
5.96527e-17
4.45103e-17
-2.92893e-16
-2.1484e-16
6.04137e-17
4.29993e-17
-2.93261e-16
-2.13505e-16
6.20596e-17
4.13654e-17
-2.94497e-16
-2.12293e-16
6.38829e-17
4.0576e-17
-2.95876e-16
-2.11726e-16
6.65814e-17
3.94892e-17
-2.97376e-16
-2.11446e-16
6.81194e-17
3.80689e-17
-2.98373e-16
-2.10953e-16
6.85434e-17
3.68032e-17
-2.9812e-16
-2.09583e-16
6.8868e-17
3.40526e-17
-2.96919e-16
-2.08021e-16
6.84638e-17
3.14865e-17
-2.95416e-16
-2.05942e-16
6.83178e-17
2.87235e-17
-2.9322e-16
-2.04651e-16
6.81251e-17
2.67343e-17
-2.91333e-16
-2.03491e-16
6.72627e-17
2.51916e-17
-2.89273e-16
-2.02781e-16
6.57616e-17
2.43766e-17
-2.87688e-16
-2.01886e-16
6.4878e-17
2.34698e-17
-2.86528e-16
-2.01122e-16
6.43087e-17
2.29108e-17
-2.86557e-16
-1.9957e-16
6.52672e-17
2.23673e-17
-2.87464e-16
-1.99061e-16
6.71396e-17
2.14994e-17
-2.88632e-16
-1.97782e-16
6.90319e-17
2.13146e-17
-2.9023e-16
-1.97527e-16
7.15496e-17
2.14446e-17
-2.92179e-16
-1.97697e-16
7.46963e-17
2.18501e-17
-2.94044e-16
-1.97994e-16
7.61741e-17
2.09111e-17
-2.95515e-16
-1.96411e-16
7.68842e-17
1.83601e-17
-2.96973e-16
-1.92985e-16
7.77032e-17
1.59273e-17
-2.98169e-16
-1.89734e-16
7.78005e-17
1.4194e-17
-2.97867e-16
-1.87773e-16
7.77583e-17
1.13484e-17
-2.96968e-16
-1.85699e-16
7.78642e-17
8.58016e-18
-2.96584e-16
-1.82967e-16
7.78603e-17
5.19079e-18
-2.96435e-16
-1.79596e-16
7.88335e-17
2.82472e-18
-2.97692e-16
-1.76407e-16
7.97155e-17
4.04962e-19
-2.97888e-16
-1.74468e-16
8.10559e-17
-1.99661e-18
-2.97727e-16
-1.7323e-16
8.29164e-17
-4.46227e-18
-2.98602e-16
-1.7175e-16
)
;

boundaryField
{
    inlet
    {
        type            cyclic;
    }
    outlet
    {
        type            cyclic;
    }
    fixedWalls-bottom
    {
        type            zeroGradient;
    }
    fixedWalls-top
    {
        type            symmetry;
    }
    frontAndBack
    {
        type            empty;
    }
}


// ************************************************************************* //
