/*--------------------------------*- C++ -*----------------------------------*\
  =========                 |
  \\      /  F ield         | OpenFOAM: The Open Source CFD Toolbox
   \\    /   O peration     | Website:  https://openfoam.org
    \\  /    A nd           | Version:  10
     \\/     M anipulation  |
\*---------------------------------------------------------------------------*/
FoamFile
{
    format      ascii;
    class       surfaceScalarField;
    location    "5000";
    object      phi;
}
// * * * * * * * * * * * * * * * * * * * * * * * * * * * * * * * * * * * * * //

dimensions      [0 3 -1 0 0 0 0];

internalField   nonuniform List<scalar> 
696
(
6.38624e-05
-2.23954e-17
6.38624e-05
-1.73e-19
6.38624e-05
1.99367e-19
1.6534e-19
0.0001946
-2.26758e-17
0.0001946
-6.534e-19
0.0001946
7.24682e-19
5.84214e-19
0.000330242
-2.34669e-17
0.000330242
-1.64739e-18
0.000330242
1.67352e-18
1.44261e-18
0.000470916
-2.44766e-17
0.000470916
-2.96557e-18
0.000470916
2.86192e-18
2.73933e-18
0.000616755
-2.60751e-17
0.000616755
-4.77145e-18
0.000616755
4.31188e-18
4.6758e-18
0.000767891
-2.78057e-17
0.000767891
-6.97523e-18
0.000767891
6.19053e-18
6.90312e-18
0.000924462
-2.98327e-17
0.000924462
-9.83331e-18
0.000924462
8.27059e-18
9.67539e-18
0.00108661
-3.21219e-17
0.00108661
-1.32829e-17
0.00108661
1.07474e-17
1.30693e-17
0.00125446
-3.40435e-17
0.00125446
-1.70061e-17
0.00125446
1.29738e-17
1.68557e-17
0.00142818
-3.6563e-17
0.00142818
-2.10126e-17
0.00142818
1.58264e-17
2.04583e-17
0.00160789
-3.89404e-17
0.00160789
-2.41124e-17
0.00160789
1.79495e-17
2.39647e-17
0.00179376
-4.1359e-17
0.00179376
-2.68729e-17
0.00179376
2.02265e-17
2.67885e-17
0.00198593
-4.33566e-17
0.00198593
-2.92449e-17
0.00198593
2.24535e-17
2.88776e-17
0.00218455
-4.56748e-17
0.00218455
-3.12431e-17
0.00218455
2.54498e-17
3.0684e-17
0.00238977
-4.8692e-17
0.00238977
-3.20487e-17
0.00238977
2.81658e-17
3.15117e-17
0.00260176
-5.06632e-17
0.00260176
-3.30707e-17
0.00260176
3.10206e-17
3.18224e-17
0.00282068
-5.25039e-17
0.00282068
-3.44579e-17
0.00282068
3.38847e-17
3.24872e-17
0.00304667
-5.38781e-17
0.00304667
-3.56085e-17
0.00304667
3.53964e-17
3.36733e-17
0.00327992
-5.43116e-17
0.00327992
-3.6493e-17
0.00327992
3.63485e-17
3.39057e-17
0.00352057
-5.43677e-17
0.00352057
-3.79317e-17
0.00352057
3.66364e-17
3.53029e-17
0.0037688
-5.34435e-17
0.0037688
-3.80306e-17
0.0037688
3.55865e-17
3.58672e-17
0.00402478
-5.11929e-17
0.00402478
-3.58678e-17
0.00402478
3.47479e-17
3.27564e-17
0.00428867
-4.89856e-17
0.00428867
-3.45771e-17
0.00428867
3.39761e-17
3.03288e-17
0.00456065
-4.78649e-17
0.00456065
-3.27881e-17
0.00456065
3.24198e-17
2.91005e-17
0.00484089
-4.59264e-17
0.00484089
-3.20735e-17
0.00484089
3.07272e-17
2.82058e-17
0.00512956
-4.15676e-17
0.00512956
-3.1266e-17
0.00512956
2.74035e-17
2.65121e-17
0.00542685
-3.9751e-17
0.00542685
-3.03707e-17
0.00542685
2.66105e-17
2.44308e-17
0.00573292
-3.90809e-17
0.00573292
-2.72006e-17
0.00573292
2.46697e-17
2.30812e-17
0.00604795
-3.78277e-17
0.00604795
-2.55917e-17
0.00604795
2.35624e-17
2.09792e-17
0.00637212
-3.86176e-17
0.00637212
-2.4478e-17
0.00637212
2.43139e-17
1.96831e-17
0.00670562
-4.04202e-17
0.00670562
-2.41178e-17
0.00670562
2.63213e-17
1.94472e-17
0.00704861
-4.18927e-17
0.00704861
-2.3549e-17
0.00704861
2.8715e-17
1.74297e-17
0.00740129
-4.17056e-17
0.00740129
-2.38482e-17
0.00740129
2.86725e-17
1.75564e-17
0.00776382
-4.19951e-17
0.00776382
-2.20866e-17
0.00776382
2.91626e-17
1.51873e-17
0.00813639
-4.3567e-17
0.00813639
-1.48006e-17
0.00813639
2.80388e-17
8.48578e-18
0.00851917
-4.20113e-17
0.00851917
-1.00104e-17
0.00851917
2.73658e-17
3.42048e-18
0.00891234
-4.06596e-17
0.00891234
-4.85017e-18
0.00891234
2.61105e-17
-2.45747e-18
0.00931608
-3.88827e-17
0.00931608
-6.29997e-19
0.00931608
2.58097e-17
-9.30563e-18
0.00973056
-3.6656e-17
0.00973056
5.9584e-18
0.00973056
2.60669e-17
-1.68668e-17
0.010156
-3.36108e-17
0.010156
8.25111e-18
0.010156
2.59277e-17
-2.00065e-17
0.0105924
-3.25863e-17
0.0105924
1.25905e-17
0.0105924
2.54149e-17
-2.45596e-17
0.0110402
-2.97784e-17
0.0110402
1.26088e-17
0.0110402
2.19785e-17
-2.59868e-17
0.0114993
-2.79889e-17
0.0114993
1.08071e-17
0.0114993
2.09055e-17
-2.31257e-17
0.0119701
-2.72679e-17
0.0119701
9.0011e-18
0.0119701
1.87103e-17
-2.16248e-17
0.0124525
-2.39053e-17
0.0124525
9.24011e-18
0.0124525
1.49456e-17
-2.15111e-17
0.0129469
-2.33913e-17
0.0129469
6.68537e-18
0.0129469
1.46537e-17
-1.80356e-17
0.0134533
-2.3763e-17
0.0134533
3.58152e-18
0.0134533
1.53622e-17
-1.56184e-17
0.0139719
-2.37345e-17
0.0139719
4.53133e-18
0.0139719
1.60954e-17
-1.58326e-17
0.0145027
-2.14048e-17
0.0145027
2.64991e-18
0.0145027
1.50506e-17
-1.54956e-17
0.0150461
-1.70037e-17
0.0150461
-5.13803e-18
0.0150461
1.41682e-17
-1.12508e-17
0.015602
-1.61389e-17
0.015602
-8.94115e-18
0.015602
1.40457e-17
-9.29651e-18
0.0161706
-1.4522e-17
0.0161706
-1.6929e-17
0.0161706
1.16871e-17
-3.11028e-18
0.016752
-1.52818e-17
0.016752
-2.18526e-17
0.016752
1.05457e-17
6.79487e-18
0.0173463
-7.99654e-18
0.0173463
-3.07988e-17
0.0173463
8.08397e-18
9.46749e-18
0.0179535
-7.85862e-18
0.0179535
-3.51652e-17
0.0179535
8.14712e-18
1.49357e-17
0.0185738
-3.03313e-18
0.0185738
-3.60325e-17
0.0185738
1.86024e-18
1.95325e-17
0.0192072
-4.18017e-18
0.0192072
-3.81968e-17
0.0192072
2.22033e-18
2.47813e-17
0.0198537
3.26059e-18
0.0198537
-4.50471e-17
0.0198537
-4.70093e-18
3.06735e-17
0.0205135
5.05609e-18
0.0205135
-4.37189e-17
0.0205135
-5.05603e-18
2.88903e-17
0.0211864
9.2227e-19
0.0211864
-4.25841e-17
0.0211864
-1.47895e-20
2.78289e-17
0.0218726
7.05843e-19
0.0218726
-3.08521e-17
0.0218726
4.29001e-19
1.31327e-17
0.022572
3.07842e-18
0.022572
-2.08649e-17
0.022572
-5.44907e-18
1.05627e-17
0.0232845
2.7526e-18
0.0232845
-1.30089e-17
0.0232845
-6.0572e-18
1.97775e-18
0.0240101
1.04499e-17
0.0240101
-1.24989e-17
0.0240101
-1.19733e-17
7.3233e-19
0.0247487
6.68729e-18
0.0247487
-4.76509e-18
0.0247487
-1.02844e-17
-1.10824e-18
0.0255003
2.33879e-18
0.0255003
-1.19753e-20
0.0255003
-1.09251e-17
-4.89761e-18
0.0262647
-7.7329e-18
0.0262647
8.62124e-18
0.0262647
-4.68575e-18
-6.06051e-18
0.0270417
-7.78875e-18
0.0270417
7.17703e-18
0.0270417
-4.10768e-18
-6.04623e-18
0.0278312
-9.06902e-18
0.0278312
6.35634e-18
0.0278312
-3.65512e-18
-7.47945e-18
0.0286329
-7.84935e-18
0.0286329
6.2605e-18
0.0286329
-3.73368e-18
-7.78326e-18
0.0294467
-1.30731e-17
0.0294467
8.76899e-18
0.0294467
-1.22297e-18
-1.05758e-17
0.0302722
-1.21509e-17
0.0302722
4.4285e-18
0.0302722
2.40416e-18
-6.33932e-18
0.0311091
-2.0554e-17
0.0311091
5.09642e-18
0.0311091
5.96401e-18
-2.41397e-18
0.031957
-1.527e-17
0.031957
1.80878e-17
0.031957
1.95058e-18
-1.44608e-17
0.0328157
-1.6209e-17
0.0328157
3.21293e-17
0.0328157
-7.66149e-18
-2.61155e-17
0.0336845
-1.49785e-17
0.0336845
4.2956e-17
0.0336845
-1.25194e-17
-3.6225e-17
0.0345631
-9.81546e-18
0.0345631
5.37368e-17
0.0345631
-1.83151e-17
-3.89502e-17
0.0354509
-1.20382e-17
0.0354509
5.73088e-17
0.0354509
-1.79156e-17
-4.24849e-17
0.0363472
-1.27391e-17
0.0363472
5.52239e-17
0.0363472
-1.89596e-17
-3.96204e-17
0.0372516
-7.1622e-18
0.0372516
5.28662e-17
0.0372516
-1.94797e-17
-3.84334e-17
0.0381632
-5.46578e-18
0.0381632
4.34579e-17
0.0381632
-2.59227e-18
-4.16591e-17
0.0390813
-8.4025e-18
0.0390813
4.83893e-17
0.0390813
7.99291e-19
-4.40647e-17
0.0400051
-2.91197e-17
0.0400051
3.66388e-17
0.0400051
2.42387e-17
-3.48684e-17
0.0409336
-4.17357e-17
0.0409336
1.49933e-17
0.0409336
3.04549e-17
-1.12346e-17
0.0418659
-4.62098e-17
0.0418659
7.62222e-18
0.0418659
3.0174e-17
-9.43774e-18
0.0428009
-4.08033e-17
0.0428009
-5.59638e-18
0.0428009
2.99249e-17
1.02868e-18
0.0437375
-3.61305e-17
0.0437375
-7.7305e-18
0.0437375
1.98926e-17
1.3627e-17
0.0446745
-3.61675e-17
0.0446745
-1.36696e-18
0.0446745
1.51491e-17
1.46078e-18
0.0456105
-2.43192e-17
0.0456105
5.60968e-18
0.0456105
1.40576e-17
-1.53306e-17
0.0465442
-2.10024e-17
0.0465442
2.387e-17
0.0465442
1.24146e-17
-2.69353e-17
0.047474
-1.1902e-17
0.047474
2.83246e-17
0.047474
5.97318e-18
-3.24406e-17
0.0483983
-6.59789e-18
0.0483983
3.28787e-17
0.0483983
7.28482e-18
-4.17505e-17
0.0493153
-1.20398e-17
0.0493153
5.05078e-17
0.0493153
-1.38493e-18
-4.19911e-17
0.0502233
-1.4061e-17
0.0502233
3.70684e-17
0.0502233
4.68439e-18
-3.51964e-17
0.0511201
-2.04136e-17
0.0511201
3.55701e-17
0.0511201
1.1014e-17
-4.00486e-17
0.0520038
-3.32206e-17
0.0520038
3.11508e-17
0.0520038
2.41196e-17
-3.68148e-17
0.0528719
-3.60579e-17
0.0528719
3.31629e-17
0.0528719
1.9283e-17
-2.32134e-17
0.0537222
-4.39026e-17
0.0537222
2.11434e-17
0.0537222
2.724e-17
-1.20416e-17
0.0545521
-2.0175e-17
0.0545521
2.1048e-17
0.0545521
1.1018e-17
-1.1309e-17
0.0553588
0.0553588
0.0553588
)
;

boundaryField
{
    inlet
    {
        type            cyclic;
        value           nonuniform List<scalar> 
100
(
-0.0553588
-0.0545521
-0.0537222
-0.0528719
-0.0520038
-0.0511201
-0.0502233
-0.0493153
-0.0483983
-0.047474
-0.0465442
-0.0456105
-0.0446745
-0.0437375
-0.0428009
-0.0418659
-0.0409336
-0.0400051
-0.0390813
-0.0381632
-0.0372516
-0.0363472
-0.0354509
-0.0345631
-0.0336845
-0.0328157
-0.031957
-0.0311091
-0.0302722
-0.0294467
-0.0286329
-0.0278312
-0.0270417
-0.0262647
-0.0255003
-0.0247487
-0.0240101
-0.0232845
-0.022572
-0.0218726
-0.0211864
-0.0205135
-0.0198537
-0.0192072
-0.0185738
-0.0179535
-0.0173463
-0.016752
-0.0161706
-0.015602
-0.0150461
-0.0145027
-0.0139719
-0.0134533
-0.0129469
-0.0124525
-0.0119701
-0.0114993
-0.0110402
-0.0105924
-0.010156
-0.00973056
-0.00931608
-0.00891234
-0.00851917
-0.00813639
-0.00776382
-0.00740129
-0.00704861
-0.00670562
-0.00637212
-0.00604795
-0.00573292
-0.00542685
-0.00512956
-0.00484089
-0.00456065
-0.00428867
-0.00402478
-0.0037688
-0.00352057
-0.00327992
-0.00304667
-0.00282068
-0.00260176
-0.00238977
-0.00218455
-0.00198593
-0.00179376
-0.00160789
-0.00142818
-0.00125446
-0.00108661
-0.000924462
-0.000767891
-0.000616755
-0.000470916
-0.000330242
-0.0001946
-6.38624e-05
)
;
    }
    outlet
    {
        type            cyclic;
        value           nonuniform List<scalar> 
100
(
0.0553588
0.0545521
0.0537222
0.0528719
0.0520038
0.0511201
0.0502233
0.0493153
0.0483983
0.047474
0.0465442
0.0456105
0.0446745
0.0437375
0.0428009
0.0418659
0.0409336
0.0400051
0.0390813
0.0381632
0.0372516
0.0363472
0.0354509
0.0345631
0.0336845
0.0328157
0.031957
0.0311091
0.0302722
0.0294467
0.0286329
0.0278312
0.0270417
0.0262647
0.0255003
0.0247487
0.0240101
0.0232845
0.022572
0.0218726
0.0211864
0.0205135
0.0198537
0.0192072
0.0185738
0.0179535
0.0173463
0.016752
0.0161706
0.015602
0.0150461
0.0145027
0.0139719
0.0134533
0.0129469
0.0124525
0.0119701
0.0114993
0.0110402
0.0105924
0.010156
0.00973056
0.00931608
0.00891234
0.00851917
0.00813639
0.00776382
0.00740129
0.00704861
0.00670562
0.00637212
0.00604795
0.00573292
0.00542685
0.00512956
0.00484089
0.00456065
0.00428867
0.00402478
0.0037688
0.00352057
0.00327992
0.00304667
0.00282068
0.00260176
0.00238977
0.00218455
0.00198593
0.00179376
0.00160789
0.00142818
0.00125446
0.00108661
0.000924462
0.000767891
0.000616755
0.000470916
0.000330242
0.0001946
6.38624e-05
)
;
    }
    fixedWalls-bottom
    {
        type            calculated;
        value           uniform 0;
    }
    fixedWalls-top
    {
        type            symmetry;
        value           uniform 0;
    }
    frontAndBack
    {
        type            empty;
        value           nonuniform List<scalar> 0();
    }
}


// ************************************************************************* //
