y,U_x,U_y,U_z
0,0,0,0
0.00502513,0.0151614,-1.32828e-10,0
0.0100503,0.0302816,-2.77442e-10,0
0.0150754,0.0451962,-4.80987e-10,0
0.0201005,0.0600699,-7.00454e-10,0
0.0251256,0.0748388,-9.60719e-10,0
0.0301508,0.0895565,-1.21216e-09,0
0.0351759,0.104175,-1.44652e-09,0
0.040201,0.118741,-1.65837e-09,0
0.0452261,0.133205,-1.82748e-09,0
0.0502513,0.147622,-1.96243e-09,0
0.0552764,0.161926,-2.01453e-09,0
0.0603015,0.176201,-2.03571e-09,0
0.0653266,0.190341,-1.91606e-09,0
0.0703518,0.20448,-1.7947e-09,0
0.0753769,0.21845,-1.44653e-09,0
0.080402,0.232421,-1.09835e-09,0
0.0854271,0.246257,-5.27941e-10,0
0.0904523,0.260053,1.0788e-10,0
0.0954774,0.273764,9.07823e-10,0
0.100503,0.287381,1.89018e-09,0
0.105528,0.300978,2.91653e-09,0
0.110553,0.31441,4.3038e-09,0
0.115578,0.327842,5.69108e-09,0
0.120603,0.341146,7.3895e-09,0
0.125628,0.354388,9.23718e-09,0
0.130653,0.367596,1.11735e-08,0
0.135678,0.380642,1.35331e-08,0
0.140704,0.393689,1.58927e-08,0
0.145729,0.406615,1.8586e-08,0
0.150754,0.41946,2.15029e-08,0
0.155779,0.432304,2.44199e-08,0
0.160804,0.444953,2.79026e-08,0
0.165829,0.457591,3.14149e-08,0
0.170854,0.470181,3.50682e-08,0
0.175879,0.482606,3.92047e-08,0
0.180905,0.495031,4.33411e-08,0
0.18593,0.507363,4.77497e-08,0
0.190955,0.519569,5.25287e-08,0
0.19598,0.531775,5.73076e-08,0
0.201005,0.543859,6.24373e-08,0
0.20603,0.55584,6.78649e-08,0
0.211055,0.567821,7.32926e-08,0
0.21608,0.579669,7.90892e-08,0
0.221106,0.591418,8.51587e-08,0
0.226131,0.603167,9.12282e-08,0
0.231156,0.614792,9.7623e-08,0
0.236181,0.626303,1.04313e-07,0
0.241206,0.637814,1.11004e-07,0
0.246231,0.649231,1.1792e-07,0
0.251256,0.660497,1.25195e-07,0
0.256281,0.671764,1.32471e-07,0
0.261307,0.682991,1.39831e-07,0
0.266332,0.694006,1.47642e-07,0
0.271357,0.705021,1.55452e-07,0
0.276382,0.716036,1.63263e-07,0
0.281407,0.726835,1.71467e-07,0
0.286432,0.737591,1.79747e-07,0
0.291457,0.748348,1.88027e-07,0
0.296482,0.758992,1.96472e-07,0
0.301508,0.769483,2.05142e-07,0
0.306533,0.779974,2.13812e-07,0
0.311558,0.790465,2.22483e-07,0
0.316583,0.800708,2.31422e-07,0
0.321608,0.810925,2.40389e-07,0
0.326633,0.821143,2.49356e-07,0
0.331658,0.831279,2.58379e-07,0
0.336683,0.841216,2.67538e-07,0
0.341709,0.851153,2.76696e-07,0
0.346734,0.86109,2.85855e-07,0
0.351759,0.870862,2.95056e-07,0
0.356784,0.88051,3.0429e-07,0
0.361809,0.890158,3.13523e-07,0
0.366834,0.899807,3.22756e-07,0
0.371859,0.909234,3.31952e-07,0
0.376884,0.918586,3.41134e-07,0
0.38191,0.927938,3.50317e-07,0
0.386935,0.93729,3.59499e-07,0
0.39196,0.946394,3.68533e-07,0
0.396985,0.955442,3.77532e-07,0
0.40201,0.964489,3.86531e-07,0
0.407035,0.973536,3.95529e-07,0
0.41206,0.982344,4.04283e-07,0
0.417085,0.991078,4.1296e-07,0
0.422111,0.999812,4.21638e-07,0
0.427136,1.00855,4.30315e-07,0
0.432161,1.01709,4.38716e-07,0
0.437186,1.0255,4.46932e-07,0
0.442211,1.03391,4.55147e-07,0
0.447236,1.04232,4.63363e-07,0
0.452261,1.05063,4.71389e-07,0
0.457286,1.05871,4.79002e-07,0
0.462312,1.0668,4.86615e-07,0
0.467337,1.07488,4.94228e-07,0
0.472362,1.08296,5.01841e-07,0
0.477387,1.09073,5.08782e-07,0
0.482412,1.09847,5.15654e-07,0
0.487437,1.10621,5.22526e-07,0
0.492462,1.11396,5.29399e-07,0
0.497487,1.12157,5.35944e-07,0
0.502513,1.12896,5.41942e-07,0
0.507538,1.13635,5.4794e-07,0
0.512563,1.14374,5.53938e-07,0
0.517588,1.15113,5.59936e-07,0
0.522613,1.15827,5.65223e-07,0
0.527638,1.1653,5.70219e-07,0
0.532663,1.17234,5.75216e-07,0
0.537688,1.17937,5.80213e-07,0
0.542714,1.1864,5.8521e-07,0
0.547739,1.1931,5.89185e-07,0
0.552764,1.19976,5.93062e-07,0
0.557789,1.20642,5.96939e-07,0
0.562814,1.21309,6.00817e-07,0
0.567839,1.21975,6.04694e-07,0
0.572864,1.22604,6.07371e-07,0
0.577889,1.23233,6.10022e-07,0
0.582915,1.23861,6.12672e-07,0
0.58794,1.2449,6.15322e-07,0
0.592965,1.25118,6.17972e-07,0
0.59799,1.25711,6.19429e-07,0
0.603015,1.26301,6.20756e-07,0
0.60804,1.2689,6.22082e-07,0
0.613065,1.27479,6.23409e-07,0
0.61809,1.28069,6.24735e-07,0
0.623116,1.28631,6.25105e-07,0
0.628141,1.2918,6.25023e-07,0
0.633166,1.2973,6.24941e-07,0
0.638191,1.30279,6.24858e-07,0
0.643216,1.30828,6.24776e-07,0
0.648241,1.31365,6.24238e-07,0
0.653266,1.31873,6.22673e-07,0
0.658291,1.32381,6.21108e-07,0
0.663317,1.32889,6.19542e-07,0
0.668342,1.33397,6.17977e-07,0
0.673367,1.33905,6.16411e-07,0
0.678392,1.3438,6.1364e-07,0
0.683417,1.34846,6.10529e-07,0
0.688442,1.35312,6.07418e-07,0
0.693467,1.35777,6.04307e-07,0
0.698492,1.36243,6.01196e-07,0
0.703518,1.36704,5.97933e-07,0
0.708543,1.37126,5.93227e-07,0
0.713568,1.37548,5.88521e-07,0
0.718593,1.37971,5.83816e-07,0
0.723618,1.38393,5.7911e-07,0
0.728643,1.38815,5.74404e-07,0
0.733668,1.39226,5.69295e-07,0
0.738693,1.39603,5.62959e-07,0
0.743719,1.3998,5.56624e-07,0
0.748744,1.40358,5.50289e-07,0
0.753769,1.40735,5.43954e-07,0
0.758794,1.41112,5.37619e-07,0
0.763819,1.41479,5.30902e-07,0
0.768844,1.4181,5.22922e-07,0
0.773869,1.42141,5.14942e-07,0
0.778894,1.42473,5.06961e-07,0
0.78392,1.42804,4.98981e-07,0
0.788945,1.43135,4.91001e-07,0
0.79397,1.43464,4.8295e-07,0
0.798995,1.43748,4.73341e-07,0
0.80402,1.44032,4.63732e-07,0
0.809045,1.44316,4.54123e-07,0
0.81407,1.44599,4.44513e-07,0
0.819095,1.44883,4.34904e-07,0
0.824121,1.45167,4.25295e-07,0
0.829146,1.45418,4.14646e-07,0
0.834171,1.45653,4.035e-07,0
0.839196,1.45888,3.92355e-07,0
0.844221,1.46123,3.8121e-07,0
0.849246,1.46358,3.70064e-07,0
0.854271,1.46593,3.58919e-07,0
0.859296,1.46822,3.47616e-07,0
0.864322,1.47007,3.35242e-07,0
0.869347,1.47192,3.22869e-07,0
0.874372,1.47377,3.10495e-07,0
0.879397,1.47562,2.98121e-07,0
0.884422,1.47747,2.85748e-07,0
0.889447,1.47932,2.73374e-07,0
0.894472,1.48097,2.60815e-07,0
0.899497,1.4823,2.47968e-07,0
0.904523,1.48364,2.35121e-07,0
0.909548,1.48497,2.22274e-07,0
0.914573,1.48631,2.09427e-07,0
0.919598,1.48764,1.9658e-07,0
0.924623,1.48898,1.83733e-07,0
0.929648,1.49007,1.71038e-07,0
0.934673,1.49087,1.5852e-07,0
0.939698,1.49168,1.46002e-07,0
0.944724,1.49248,1.33484e-07,0
0.949749,1.49328,1.20966e-07,0
0.954774,1.49409,1.08448e-07,0
0.959799,1.49489,9.59305e-08,0
0.964824,1.49552,8.3604e-08,0
0.969849,1.49578,7.16606e-08,0
0.974874,1.49605,5.97172e-08,0
0.979899,1.49632,4.77737e-08,0
0.984925,1.49658,3.58303e-08,0
0.98995,1.49685,2.38869e-08,0
0.994975,1.49711,1.19434e-08,0
1,1.49738,0,0