/*--------------------------------*- C++ -*----------------------------------*\
  =========                 |
  \\      /  F ield         | OpenFOAM: The Open Source CFD Toolbox
   \\    /   O peration     | Website:  https://openfoam.org
    \\  /    A nd           | Version:  10
     \\/     M anipulation  |
\*---------------------------------------------------------------------------*/
FoamFile
{
    format      ascii;
    class       volScalarField;
    location    "4356";
    object      k;
}
// * * * * * * * * * * * * * * * * * * * * * * * * * * * * * * * * * * * * * //

dimensions      [0 2 -2 0 0 0 0];

internalField   nonuniform List<scalar> 
400
(
2.46424e-09
2.4613e-09
2.46025e-09
2.46177e-09
7.39344e-08
7.38463e-08
7.38147e-08
7.38603e-08
5.23652e-07
5.23027e-07
5.22803e-07
5.23125e-07
1.90401e-06
1.90174e-06
1.90092e-06
1.90209e-06
4.92723e-06
4.92134e-06
4.91923e-06
4.92226e-06
1.04364e-05
1.04239e-05
1.04195e-05
1.04259e-05
1.93991e-05
1.93758e-05
1.93676e-05
1.93794e-05
3.29078e-05
3.28684e-05
3.28544e-05
3.28744e-05
5.21837e-05
5.21214e-05
5.20991e-05
5.21306e-05
7.858e-05
7.84865e-05
7.84529e-05
7.84998e-05
0.000113582
0.000113448
0.000113399
0.000113466
0.000158802
0.000158615
0.000158547
0.000158639
0.000215956
0.000215703
0.00021561
0.000215733
0.000286829
0.000286497
0.000286373
0.000286532
0.000373217
0.00037279
0.000372628
0.000372828
0.000476839
0.000476303
0.000476096
0.000476343
0.000599247
0.000598589
0.000598328
0.000598626
0.000741708
0.000740918
0.000740595
0.000740949
0.000905104
0.000904177
0.000903781
0.000904194
0.00108983
0.00108877
0.00108829
0.00108877
0.00129574
0.00129455
0.00129398
0.00129452
0.00152207
0.00152077
0.00152011
0.00152071
0.00176745
0.00176607
0.00176531
0.00176597
0.00202987
0.00202845
0.00202759
0.00202829
0.00230661
0.0023052
0.00230423
0.00230497
0.00259416
0.00259282
0.00259175
0.00259252
0.00288803
0.00288683
0.00288567
0.00288643
0.00318382
0.00318283
0.0031816
0.00318231
0.00347969
0.00347891
0.00347763
0.00347829
0.00377319
0.00377266
0.00377132
0.00377192
0.00406201
0.00406175
0.00406038
0.00406089
0.00434401
0.00434403
0.00434264
0.00434306
0.00461722
0.00461753
0.00461612
0.00461643
0.0048798
0.00488042
0.00487901
0.0048792
0.0051302
0.00513104
0.00512959
0.00512976
0.00537151
0.00537248
0.00537097
0.0053712
0.00560597
0.005607
0.00560542
0.0056058
0.00583518
0.0058362
0.00583455
0.00583512
0.00606018
0.00606114
0.00605944
0.00606024
0.00628165
0.0062825
0.00628074
0.00628182
0.00649991
0.00650063
0.00649882
0.00650021
0.00671511
0.00671564
0.0067138
0.00671553
0.00692717
0.0069275
0.00692562
0.00692773
0.00713593
0.00713601
0.00713409
0.00713662
0.00734108
0.00734088
0.00733893
0.00734192
0.00754226
0.00754174
0.00753976
0.00754325
0.00773902
0.00773815
0.00773614
0.00774019
0.00793086
0.00792959
0.00792756
0.00793222
0.00811723
0.00811551
0.00811348
0.0081188
0.00829751
0.00829532
0.00829327
0.00829932
0.00847104
0.00846835
0.0084663
0.00847312
0.00863712
0.0086339
0.00863183
0.00863949
0.00879496
0.00879121
0.00878913
0.00879767
0.00894376
0.00893948
0.00893735
0.00894683
0.00908261
0.00907782
0.00907564
0.00908609
0.00921058
0.0092053
0.00920305
0.0092145
0.00932665
0.00932091
0.00931859
0.00933105
0.00942972
0.00942359
0.00942116
0.00943466
0.00951865
0.00951217
0.00950965
0.00952416
0.00959219
0.00958544
0.00958281
0.00959831
0.00964904
0.00964209
0.00963936
0.0096558
0.00968783
0.00968073
0.00967791
0.00969521
0.00970707
0.00969992
0.009697
0.00971506
0.00970523
0.00969812
0.0096951
0.00971376
0.00968068
0.00967371
0.00967058
0.00968965
0.00963174
0.00962501
0.00962177
0.00964099
0.00955667
0.00955029
0.00954692
0.00956598
0.00945367
0.00944775
0.00944425
0.00946276
0.00932094
0.00931558
0.00931191
0.00932939
0.00915665
0.00915191
0.00914803
0.00916392
0.00895892
0.00895482
0.00895071
0.00896432
0.00872571
0.00872215
0.0087178
0.00872838
0.00845611
0.00845318
0.00844863
0.00845664
0.00815097
0.00814863
0.00814398
0.0081498
0.00781135
0.00780951
0.00780483
0.00780888
0.00743861
0.00743722
0.00743254
0.00743523
0.00703455
0.00703362
0.00702891
0.00703065
0.00660147
0.00660104
0.00659621
0.00659739
0.00614218
0.00614224
0.00613723
0.00613816
0.00565962
0.00566012
0.00565489
0.00565578
0.00515684
0.00515766
0.00515228
0.0051532
0.00463019
0.0046313
0.00462549
0.00462675
0.00408672
0.00408793
0.00408198
0.00408352
0.00355089
0.00355187
0.00354648
0.003548
0.00304441
0.00304494
0.0030405
0.00304182
0.00258019
0.00258031
0.00257686
0.00257796
0.0021647
0.00216451
0.00216198
0.00216288
0.00180004
0.0017996
0.00179787
0.00179865
0.00148523
0.00148467
0.00148351
0.00148426
0.00121729
0.00121669
0.00121593
0.0012167
0.000992114
0.000991564
0.000991032
0.000991851
0.000805173
0.000804703
0.000804294
0.000805167
0.000651887
0.000651498
0.000651156
0.000652066
0.000527888
0.00052759
0.000527283
0.000528206
0.00042922
0.000429006
0.000428726
0.000429637
0.000352397
0.000352248
0.000352
0.000352875
0.000294451
0.000294349
0.000294134
0.000294963
0.000252987
0.000252913
0.000252731
0.000253513
0.000226226
0.000226167
0.000226011
0.000226754
0.000213051
0.000212997
0.000212854
0.000213576
)
;

boundaryField
{
    inlet
    {
        type            cyclic;
    }
    outlet
    {
        type            cyclic;
    }
    fixedWalls-bottom
    {
        type            kqRWallFunction;
        value           nonuniform List<scalar> 4(2.46424e-09 2.4613e-09 2.46025e-09 2.46177e-09);
    }
    fixedWalls-top
    {
        type            symmetry;
    }
    frontAndBack
    {
        type            empty;
    }
}


// ************************************************************************* //
