/*--------------------------------*- C++ -*----------------------------------*\
  =========                 |
  \\      /  F ield         | OpenFOAM: The Open Source CFD Toolbox
   \\    /   O peration     | Website:  https://openfoam.org
    \\  /    A nd           | Version:  10
     \\/     M anipulation  |
\*---------------------------------------------------------------------------*/
FoamFile
{
    format      ascii;
    class       volScalarField;
    location    "4356";
    object      omega;
}
// * * * * * * * * * * * * * * * * * * * * * * * * * * * * * * * * * * * * * //

dimensions      [0 0 -1 0 0 0 0];

internalField   nonuniform List<scalar> 
400
(
170774
170774
170774
170774
29213.8
29213.7
29213.7
29213.7
9827.19
9827.16
9827.16
9827.15
4615.93
4615.92
4615.92
4615.91
2610.58
2610.58
2610.58
2610.56
1655.93
1655.93
1655.93
1655.91
1134.24
1134.26
1134.25
1134.23
820.479
820.501
820.496
820.466
617.972
617.997
617.991
617.957
479.89
479.919
479.912
479.874
381.384
381.418
381.41
381.368
308.311
308.35
308.341
308.296
252.18
252.227
252.218
252.17
207.709
207.764
207.756
207.707
171.532
171.597
171.589
171.541
141.485
141.561
141.553
141.507
116.17
116.256
116.249
116.206
94.683
94.7766
94.7709
94.7315
76.4252
76.5247
76.5202
76.4844
60.9825
61.0848
61.0817
61.049
48.0397
48.1413
48.1396
48.1094
37.3289
37.4261
37.426
37.3978
28.5996
28.6892
28.6909
28.664
21.6059
21.6857
21.6878
21.6631
16.1057
16.1732
16.1765
16.1533
11.8636
11.918
11.9232
11.9005
8.65839
8.70048
8.70723
8.68516
6.26927
6.30092
6.30886
6.28815
4.50436
4.5277
4.53616
4.51744
3.21664
3.23368
3.24175
3.22542
2.28902
2.30145
2.30849
2.29473
1.62833
1.63748
1.64318
1.63196
1.16201
1.1689
1.1731
1.1643
0.834728
0.840078
0.842788
0.836191
0.607557
0.611923
0.613133
0.608511
0.45209
0.45583
0.455667
0.452751
0.347225
0.350246
0.349508
0.347693
0.277593
0.280041
0.279099
0.277939
0.232196
0.23421
0.233221
0.232488
0.203285
0.20499
0.204033
0.203582
0.185483
0.186985
0.1861
0.185841
0.175106
0.176498
0.175704
0.175585
0.169702
0.171025
0.170341
0.170295
0.167615
0.168893
0.168351
0.168306
0.167747
0.168996
0.168566
0.168556
0.169384
0.17061
0.170308
0.170328
0.172072
0.173263
0.173108
0.173176
0.175527
0.176647
0.176654
0.176828
0.179579
0.180556
0.180758
0.181118
0.184126
0.184969
0.185309
0.185943
0.189118
0.189813
0.190313
0.191235
0.194532
0.195077
0.195726
0.196979
0.200367
0.200769
0.201546
0.203174
0.206633
0.206924
0.207791
0.209826
0.213349
0.213574
0.21448
0.216955
0.220537
0.220715
0.221647
0.224587
0.228221
0.228369
0.229312
0.232751
0.236418
0.236563
0.237504
0.241478
0.245133
0.245318
0.246247
0.250794
0.254341
0.254656
0.25556
0.260725
0.263957
0.264592
0.26546
0.271288
0.27433
0.275023
0.275951
0.282487
0.285261
0.286014
0.287022
0.294311
0.29672
0.297571
0.298645
0.306721
0.308683
0.309642
0.310762
0.31967
0.321081
0.322148
0.323304
0.333088
0.33383
0.335019
0.336207
0.346895
0.346879
0.348228
0.349439
0.361037
0.360282
0.361854
0.363067
0.37555
0.37434
0.376261
0.377424
0.390867
0.391062
0.393615
0.394652
0.409377
0.414175
0.417753
0.418537
0.434936
0.449513
0.454702
0.454978
0.473558
0.505973
0.513479
0.512843
0.53402
0.595356
0.60625
0.604279
0.627502
0.730423
0.745741
0.742747
0.765624
0.921524
0.940176
0.937802
0.957236
1.17602
1.1914
1.19611
1.20727
1.46779
1.46888
1.49093
1.4858
1.83081
1.82883
1.86639
1.84013
2.48631
2.48095
2.53574
2.49337
3.8586
3.84281
3.91687
3.86266
6.00398
5.98137
6.0676
6.00209
8.34238
8.32775
8.41232
8.33998
10.6563
10.6785
10.7275
10.6617
12.8401
12.8708
12.9066
12.8482
14.786
14.8266
14.8324
14.7885
16.4554
16.5184
16.4766
16.4473
17.8653
17.939
17.8735
17.8465
19.0731
19.1428
19.0744
19.0363
20.1204
20.1775
20.1191
20.0644
21.0374
21.0769
21.0358
20.9604
21.8409
21.8583
21.839
21.7369
22.5339
22.5276
22.5267
22.3977
23.0876
23.0584
23.0685
22.9176
23.4651
23.4158
23.4303
23.2638
23.6498
23.5851
23.5979
23.4231
23.6453
23.5702
23.5775
23.4005
23.4775
23.3973
23.3975
23.223
23.1962
23.1161
23.1106
22.9412
)
;

boundaryField
{
    inlet
    {
        type            cyclic;
    }
    outlet
    {
        type            cyclic;
    }
    fixedWalls-bottom
    {
        beta1           0.075;
        blended         0;
        type            omegaWallFunction;
        value           uniform 170774;
    }
    fixedWalls-top
    {
        type            symmetry;
    }
    frontAndBack
    {
        type            empty;
    }
}


// ************************************************************************* //
