/*--------------------------------*- C++ -*----------------------------------*\
  =========                 |
  \\      /  F ield         | OpenFOAM: The Open Source CFD Toolbox
   \\    /   O peration     | Website:  https://openfoam.org
    \\  /    A nd           | Version:  10
     \\/     M anipulation  |
\*---------------------------------------------------------------------------*/
FoamFile
{
    format      ascii;
    class       volScalarField;
    location    "4356";
    object      p;
}
// * * * * * * * * * * * * * * * * * * * * * * * * * * * * * * * * * * * * * //

dimensions      [0 2 -2 0 0 0 0];

internalField   nonuniform List<scalar> 
400
(
4.88708e-12
4.82697e-07
-1.87572e-06
-2.35834e-06
-1.40458e-09
4.82078e-07
-1.87429e-06
-2.35772e-06
-2.99131e-09
4.81464e-07
-1.8727e-06
-2.35711e-06
-4.46437e-09
4.81002e-07
-1.87123e-06
-2.35665e-06
-5.83416e-09
4.80684e-07
-1.86986e-06
-2.35633e-06
-7.12937e-09
4.80497e-07
-1.86857e-06
-2.35614e-06
-8.35184e-09
4.80445e-07
-1.86734e-06
-2.35609e-06
-9.49611e-09
4.80531e-07
-1.8662e-06
-2.35618e-06
-1.05561e-08
4.8076e-07
-1.86514e-06
-2.35641e-06
-1.15277e-08
4.81135e-07
-1.86417e-06
-2.35678e-06
-1.24059e-08
4.81658e-07
-1.86329e-06
-2.3573e-06
-1.31868e-08
4.82329e-07
-1.86251e-06
-2.35798e-06
-1.38663e-08
4.83146e-07
-1.86183e-06
-2.35879e-06
-1.44419e-08
4.84103e-07
-1.86126e-06
-2.35975e-06
-1.4912e-08
4.85186e-07
-1.86078e-06
-2.36083e-06
-1.52781e-08
4.86374e-07
-1.86042e-06
-2.36202e-06
-1.55443e-08
4.87623e-07
-1.86015e-06
-2.36327e-06
-1.57213e-08
4.88859e-07
-1.85998e-06
-2.36451e-06
-1.58282e-08
4.89951e-07
-1.85987e-06
-2.3656e-06
-1.59041e-08
4.90664e-07
-1.85979e-06
-2.36631e-06
-1.60184e-08
4.90586e-07
-1.85968e-06
-2.36623e-06
-1.62842e-08
4.89047e-07
-1.85941e-06
-2.36469e-06
-1.68894e-08
4.8496e-07
-1.85881e-06
-2.36061e-06
-1.82891e-08
4.76272e-07
-1.85741e-06
-2.35192e-06
-2.17987e-08
4.5806e-07
-1.8539e-06
-2.33371e-06
-3.01657e-08
4.21007e-07
-1.84554e-06
-2.29665e-06
-4.43376e-08
3.62102e-07
-1.83137e-06
-2.23775e-06
-5.1993e-08
3.21255e-07
-1.82371e-06
-2.1969e-06
-4.8413e-08
3.14276e-07
-1.82729e-06
-2.18992e-06
-4.26704e-08
3.12566e-07
-1.83303e-06
-2.18821e-06
-3.67594e-08
3.09796e-07
-1.83894e-06
-2.18544e-06
-3.02488e-08
3.0731e-07
-1.84545e-06
-2.18296e-06
-2.27479e-08
3.06258e-07
-1.85295e-06
-2.18191e-06
-1.41411e-08
3.06906e-07
-1.86156e-06
-2.18255e-06
-4.55341e-09
3.09005e-07
-1.87114e-06
-2.18465e-06
5.71628e-09
3.12014e-07
-1.88141e-06
-2.18766e-06
1.63658e-08
3.15433e-07
-1.89206e-06
-2.19108e-06
2.71203e-08
3.18908e-07
-1.90282e-06
-2.19455e-06
3.7733e-08
3.22172e-07
-1.91343e-06
-2.19782e-06
4.7972e-08
3.25015e-07
-1.92367e-06
-2.20066e-06
5.76119e-08
3.27253e-07
-1.93331e-06
-2.2029e-06
6.64262e-08
3.28714e-07
-1.94212e-06
-2.20436e-06
7.41823e-08
3.2922e-07
-1.94988e-06
-2.20487e-06
8.0632e-08
3.28577e-07
-1.95633e-06
-2.20423e-06
8.55021e-08
3.2656e-07
-1.9612e-06
-2.20221e-06
8.8481e-08
3.22925e-07
-1.96418e-06
-2.19857e-06
8.92047e-08
3.17417e-07
-1.9649e-06
-2.19307e-06
8.72437e-08
3.09772e-07
-1.96294e-06
-2.18542e-06
8.21173e-08
2.99708e-07
-1.95781e-06
-2.17536e-06
7.3322e-08
2.86933e-07
-1.94901e-06
-2.16259e-06
6.0355e-08
2.71151e-07
-1.93605e-06
-2.14681e-06
4.2722e-08
2.52077e-07
-1.91841e-06
-2.12774e-06
1.99485e-08
2.29444e-07
-1.89564e-06
-2.10511e-06
-8.41145e-09
2.03016e-07
-1.86728e-06
-2.07868e-06
-4.27699e-08
1.72606e-07
-1.83292e-06
-2.04828e-06
-8.35088e-08
1.38089e-07
-1.79218e-06
-2.01376e-06
-1.30979e-07
9.94148e-08
-1.74471e-06
-1.97509e-06
-1.85494e-07
5.663e-08
-1.69019e-06
-1.9323e-06
-2.47313e-07
9.8903e-09
-1.62837e-06
-1.88556e-06
-3.16629e-07
-4.05272e-08
-1.55905e-06
-1.83514e-06
-3.93535e-07
-9.42386e-08
-1.48215e-06
-1.78143e-06
-4.77991e-07
-1.50797e-07
-1.39769e-06
-1.72486e-06
-5.69748e-07
-2.09685e-07
-1.30594e-06
-1.66597e-06
-6.68243e-07
-2.70275e-07
-1.20745e-06
-1.60537e-06
-7.72518e-07
-3.31826e-07
-1.10318e-06
-1.54381e-06
-8.81119e-07
-3.9349e-07
-9.94579e-07
-1.48213e-06
-9.91994e-07
-4.54327e-07
-8.83709e-07
-1.42129e-06
-1.10236e-06
-5.13336e-07
-7.73352e-07
-1.36227e-06
-1.2085e-06
-5.69534e-07
-6.67212e-07
-1.30607e-06
-1.30543e-06
-6.22141e-07
-5.70289e-07
-1.25346e-06
-1.38644e-06
-6.70865e-07
-4.89281e-07
-1.20474e-06
-1.44446e-06
-7.15965e-07
-4.3126e-07
-1.15965e-06
-1.47767e-06
-7.57153e-07
-3.98056e-07
-1.11848e-06
-1.48985e-06
-7.93581e-07
-3.85867e-07
-1.08206e-06
-1.48548e-06
-8.24969e-07
-3.9023e-07
-1.05068e-06
-1.46839e-06
-8.51702e-07
-4.07317e-07
-1.02395e-06
-1.44173e-06
-8.74552e-07
-4.33977e-07
-1.0011e-06
-1.40844e-06
-8.92957e-07
-4.67266e-07
-9.82693e-07
-1.37249e-06
-9.01282e-07
-5.03209e-07
-9.74361e-07
-1.33686e-06
-8.95853e-07
-5.38843e-07
-9.79778e-07
-1.28597e-06
-9.29721e-07
-5.89727e-07
-9.45886e-07
-1.16371e-06
-1.18518e-06
-7.11926e-07
-6.9044e-07
-1.02989e-06
-1.51402e-06
-8.45694e-07
-3.61642e-07
-9.75123e-07
-1.66698e-06
-9.00487e-07
-2.08681e-07
-9.70218e-07
-1.72055e-06
-9.05429e-07
-1.55103e-07
-9.7902e-07
-1.74073e-06
-8.96648e-07
-1.34914e-07
-9.85948e-07
-1.74738e-06
-8.89732e-07
-1.28267e-07
-9.92984e-07
-1.74526e-06
-8.82701e-07
-1.30393e-07
-1.00069e-06
-1.73874e-06
-8.75e-07
-1.36909e-07
-1.00731e-06
-1.73111e-06
-8.68377e-07
-1.4454e-07
-1.01218e-06
-1.72359e-06
-8.63508e-07
-1.5206e-07
-1.01547e-06
-1.71652e-06
-8.60218e-07
-1.59129e-07
-1.01763e-06
-1.71e-06
-8.58062e-07
-1.65652e-07
-1.01904e-06
-1.70404e-06
-8.56645e-07
-1.71608e-07
-1.01997e-06
-1.69867e-06
-8.55715e-07
-1.76977e-07
-1.02057e-06
-1.69396e-06
-8.55121e-07
-1.81685e-07
-1.02093e-06
-1.69002e-06
-8.54761e-07
-1.85631e-07
-1.02113e-06
-1.68695e-06
-8.54554e-07
-1.88697e-07
-1.02125e-06
-1.68491e-06
-8.54435e-07
-1.90739e-07
-1.02135e-06
-1.68396e-06
-8.54339e-07
-1.91689e-07
)
;

boundaryField
{
    inlet
    {
        type            cyclic;
    }
    outlet
    {
        type            cyclic;
    }
    fixedWalls-bottom
    {
        type            zeroGradient;
    }
    fixedWalls-top
    {
        type            symmetry;
    }
    frontAndBack
    {
        type            empty;
    }
}


// ************************************************************************* //
