/*--------------------------------*- C++ -*----------------------------------*\
  =========                 |
  \\      /  F ield         | OpenFOAM: The Open Source CFD Toolbox
   \\    /   O peration     | Website:  https://openfoam.org
    \\  /    A nd           | Version:  10
     \\/     M anipulation  |
\*---------------------------------------------------------------------------*/
FoamFile
{
    format      ascii;
    class       surfaceScalarField;
    location    "4356";
    object      phi;
}
// * * * * * * * * * * * * * * * * * * * * * * * * * * * * * * * * * * * * * //

dimensions      [0 3 -1 0 0 0 0];

internalField   nonuniform List<scalar> 
696
(
6.83831e-05
-3.45424e-10
6.83833e-05
-1.7608e-10
6.83829e-05
3.40499e-10
1.76088e-10
0.000208378
-1.33862e-09
0.000208379
-6.42034e-10
0.000208378
1.3337e-09
6.42057e-10
0.000353626
-2.97274e-09
0.000353627
-1.35001e-09
0.000353625
2.96786e-09
1.35005e-09
0.000504264
-5.23951e-09
0.000504265
-2.25514e-09
0.000504262
5.23462e-09
2.2552e-09
0.000660431
-8.12872e-09
0.000660432
-3.30798e-09
0.000660429
8.12387e-09
3.30805e-09
0.000822269
-1.16286e-08
0.000822271
-4.45403e-09
0.000822267
1.16237e-08
4.45411e-09
0.000989924
-1.57253e-08
0.000989925
-5.63351e-09
0.000989921
1.57205e-08
5.63361e-09
0.00116354
-2.04031e-08
0.00116354
-6.78083e-09
0.00116354
2.03983e-08
6.78094e-09
0.00134327
-2.56439e-08
0.00134327
-7.82439e-09
0.00134327
2.56392e-08
7.82452e-09
0.00152926
-3.14277e-08
0.00152926
-8.68605e-09
0.00152926
3.14229e-08
8.68619e-09
0.00172167
-3.77314e-08
0.00172167
-9.28104e-09
0.00172166
3.77267e-08
9.28119e-09
0.00192065
-4.45298e-08
0.00192065
-9.51756e-09
0.00192064
4.45251e-08
9.51772e-09
0.00212636
-5.17943e-08
0.00212636
-9.29703e-09
0.00212635
5.17897e-08
9.29721e-09
0.00233895
-5.94939e-08
0.00233895
-8.51422e-09
0.00233894
5.94893e-08
8.51442e-09
0.00255859
-6.7594e-08
0.00255859
-7.05866e-09
0.00255858
6.75894e-08
7.05887e-09
0.00278544
-7.60573e-08
0.00278544
-4.81671e-09
0.00278543
7.60527e-08
4.81693e-09
0.00301965
-8.48435e-08
0.00301964
-1.67667e-09
0.00301963
8.4839e-08
1.6769e-09
0.00326137
-9.39107e-08
0.00326137
2.46255e-09
0.00326136
9.39062e-08
-2.4623e-09
0.00351077
-1.03217e-07
0.00351076
7.6745e-09
0.00351075
1.03212e-07
-7.67423e-09
0.00376797
-1.12723e-07
0.00376796
1.39755e-08
0.00376795
1.12719e-07
-1.39752e-08
0.0040331
-1.22405e-07
0.00403309
2.12707e-08
0.00403308
1.22401e-07
-2.12704e-08
0.00430625
-1.32268e-07
0.00430625
2.92603e-08
0.00430624
1.32264e-07
-2.926e-08
0.00458749
-1.42383e-07
0.00458748
3.72739e-08
0.00458747
1.42378e-07
-3.72735e-08
0.00487678
-1.52957e-07
0.00487677
4.40137e-08
0.00487676
1.52953e-07
-4.40133e-08
0.005174
-1.64459e-07
0.005174
4.71407e-08
0.00517399
1.64455e-07
-4.71403e-08
0.00547887
-1.77853e-07
0.00547888
4.25903e-08
0.00547886
1.77849e-07
-4.25899e-08
0.00579085
-1.95026e-07
0.00579087
2.35535e-08
0.00579085
1.95022e-07
-2.35532e-08
0.00611036
-2.14316e-07
0.00611039
-4.99156e-09
0.00611037
2.14312e-07
4.99191e-09
0.00643829
-2.32671e-07
0.00643832
-3.32835e-08
0.0064383
2.32667e-07
3.32838e-08
0.00677481
-2.49974e-07
0.00677484
-6.08267e-08
0.00677482
2.49971e-07
6.08271e-08
0.00712006
-2.6612e-07
0.00712009
-8.71302e-08
0.00712007
2.66116e-07
8.71306e-08
0.00747417
-2.80982e-07
0.00747419
-1.11631e-07
0.00747418
2.80979e-07
1.11631e-07
0.00783727
-2.94406e-07
0.00783729
-1.33695e-07
0.00783728
2.94403e-07
1.33696e-07
0.00820951
-3.06201e-07
0.00820953
-1.52623e-07
0.00820952
3.06197e-07
1.52624e-07
0.00859105
-3.16182e-07
0.00859106
-1.67743e-07
0.00859105
3.16178e-07
1.67743e-07
0.00898202
-3.24222e-07
0.00898203
-1.78511e-07
0.00898202
3.24218e-07
1.78511e-07
0.00938256
-3.30242e-07
0.00938256
-1.84512e-07
0.00938256
3.30239e-07
1.84512e-07
0.00979279
-3.34205e-07
0.00979279
-1.85422e-07
0.00979279
3.34201e-07
1.85423e-07
0.0102128
-3.36095e-07
0.0102128
-1.80993e-07
0.0102128
3.36091e-07
1.80993e-07
0.0106428
-3.35913e-07
0.0106428
-1.71032e-07
0.0106428
3.35909e-07
1.71033e-07
0.0110829
-3.33661e-07
0.0110829
-1.554e-07
0.0110829
3.33657e-07
1.554e-07
0.011533
-3.29337e-07
0.011533
-1.34002e-07
0.011533
3.29334e-07
1.34002e-07
0.0119934
-3.2293e-07
0.0119934
-1.06796e-07
0.0119934
3.22926e-07
1.06797e-07
0.0124642
-3.14409e-07
0.0124642
-7.37974e-08
0.0124642
3.14406e-07
7.37979e-08
0.0129453
-3.03732e-07
0.0129453
-3.50899e-08
0.0129453
3.03729e-07
3.50905e-08
0.013437
-2.90844e-07
0.0134369
9.16192e-09
0.013437
2.90841e-07
-9.16139e-09
0.0139392
-2.75691e-07
0.0139391
5.87061e-08
0.0139392
2.75687e-07
-5.87056e-08
0.014452
-2.58231e-07
0.014452
1.13193e-07
0.014452
2.58228e-07
-1.13192e-07
0.0149756
-2.38454e-07
0.0149755
1.72163e-07
0.0149755
2.38451e-07
-1.72163e-07
0.0155098
-2.16386e-07
0.0155098
2.35038e-07
0.0155098
2.16383e-07
-2.35037e-07
0.0160549
-1.92092e-07
0.0160549
3.01107e-07
0.0160549
1.92089e-07
-3.01106e-07
0.0166108
-1.65679e-07
0.0166108
3.69525e-07
0.0166108
1.65676e-07
-3.69524e-07
0.0171776
-1.37299e-07
0.0171776
4.39308e-07
0.0171776
1.37297e-07
-4.39308e-07
0.0177553
-1.07157e-07
0.0177553
5.09336e-07
0.0177553
1.07154e-07
-5.09336e-07
0.0183439
-7.55132e-08
0.0183439
5.78355e-07
0.0183439
7.55104e-08
-5.78354e-07
0.0189435
-4.27065e-08
0.0189434
6.44991e-07
0.0189435
4.27038e-08
-6.44991e-07
0.019554
-9.17224e-09
0.0195539
7.07772e-07
0.019554
9.16963e-09
-7.07772e-07
0.0201754
2.45273e-08
0.0201754
7.65147e-07
0.0201754
-2.45299e-08
-7.65147e-07
0.0208079
5.76725e-08
0.0208078
8.15525e-07
0.0208078
-5.7675e-08
-8.15525e-07
0.0214512
8.93525e-08
0.0214512
8.57318e-07
0.0214512
-8.93549e-08
-8.57318e-07
0.0221055
1.18435e-07
0.0221054
8.88987e-07
0.0221055
-1.18438e-07
-8.88986e-07
0.0227706
1.43542e-07
0.0227706
9.09078e-07
0.0227707
-1.43544e-07
-9.09078e-07
0.0234467
1.63046e-07
0.0234467
9.16278e-07
0.0234467
-1.63048e-07
-9.16278e-07
0.0241337
1.75107e-07
0.0241337
9.09493e-07
0.0241337
-1.75109e-07
-9.09493e-07
0.0248314
1.77736e-07
0.0248315
8.87946e-07
0.0248315
-1.77738e-07
-8.87946e-07
0.02554
1.6891e-07
0.0255401
8.51287e-07
0.0255401
-1.68912e-07
-8.51287e-07
0.0262594
1.46745e-07
0.0262595
7.99718e-07
0.0262595
-1.46746e-07
-7.99718e-07
0.0269896
1.09758e-07
0.0269896
7.34114e-07
0.0269896
-1.09759e-07
-7.34114e-07
0.0277305
5.72389e-08
0.0277306
6.56121e-07
0.0277305
-5.72405e-08
-6.56121e-07
0.0284821
-1.02386e-08
0.0284822
5.68188e-07
0.0284821
1.0237e-08
-5.68188e-07
0.0292445
-9.01407e-08
0.0292446
4.73473e-07
0.0292445
9.01392e-08
-4.73473e-07
0.0300175
-1.77385e-07
0.0300176
3.75563e-07
0.0300176
1.77384e-07
-3.75563e-07
0.0308013
-2.66353e-07
0.0308014
2.78639e-07
0.0308013
2.66351e-07
-2.78639e-07
0.0315958
-3.53145e-07
0.0315959
1.87648e-07
0.0315958
3.53143e-07
-1.87648e-07
0.032401
-4.35481e-07
0.0324011
1.07968e-07
0.032401
4.3548e-07
-1.07968e-07
0.0332169
-5.12385e-07
0.0332169
4.52604e-08
0.0332168
5.12384e-07
-4.52604e-08
0.0340433
-5.83708e-07
0.0340433
5.47163e-09
0.0340432
5.83707e-07
-5.47169e-09
0.0348801
-6.49507e-07
0.0348801
-5.08242e-09
0.0348801
6.49505e-07
5.08236e-09
0.0357273
-7.09244e-07
0.0357273
2.03437e-08
0.0357272
7.09243e-07
-2.03438e-08
0.0365846
-7.60888e-07
0.0365845
8.88046e-08
0.0365845
7.60887e-07
-8.88047e-08
0.037452
-7.98755e-07
0.0374519
2.03787e-07
0.0374519
7.98754e-07
-2.03787e-07
0.0383359
-7.76728e-07
0.0383359
2.5071e-07
0.0383359
7.76727e-07
-2.5071e-07
0.0392416
-6.77165e-07
0.0392417
1.75248e-07
0.0392418
6.77164e-07
-1.75248e-07
0.0401637
-5.47553e-07
0.0401638
7.81578e-08
0.040164
5.47552e-07
-7.81577e-08
0.0410955
-4.16835e-07
0.0410956
-7.90547e-09
0.0410957
4.16834e-07
7.90564e-09
0.0420332
-2.9847e-07
0.0420332
-7.27547e-08
0.0420333
2.98469e-07
7.27549e-08
0.0429741
-1.9581e-07
0.0429741
-1.14675e-07
0.0429742
1.95809e-07
1.14675e-07
0.0439162
-1.11746e-07
0.0439162
-1.35697e-07
0.0439163
1.11746e-07
1.35698e-07
0.0448577
-4.70602e-08
0.0448577
-1.40372e-07
0.0448577
4.70595e-08
1.40372e-07
0.0457966
-1.58668e-10
0.0457966
-1.33915e-07
0.0457967
1.58008e-10
1.33916e-07
0.0467313
3.14961e-08
0.0467313
-1.20786e-07
0.0467313
-3.14967e-08
1.20786e-07
0.0476598
5.07026e-08
0.0476597
-1.04388e-07
0.0476598
-5.07032e-08
1.04388e-07
0.0485801
6.00991e-08
0.0485801
-8.70977e-08
0.0485801
-6.00996e-08
8.70979e-08
0.0494902
6.19864e-08
0.0494902
-7.0401e-08
0.0494902
-6.19868e-08
7.04012e-08
0.050388
5.82936e-08
0.050388
-5.50797e-08
0.050388
-5.82939e-08
5.50799e-08
0.0512711
5.05865e-08
0.0512711
-4.14234e-08
0.0512711
-5.05868e-08
4.14236e-08
0.0521371
4.00918e-08
0.0521371
-2.93906e-08
0.0521371
-4.0092e-08
2.93907e-08
0.0529834
2.77372e-08
0.0529833
-1.87173e-08
0.0529833
-2.77373e-08
1.87173e-08
0.0538072
1.42097e-08
0.0538071
-8.98984e-09
0.0538071
-1.42098e-08
8.98988e-09
0.0546056
0.0546056
0.0546055
)
;

boundaryField
{
    inlet
    {
        type            cyclic;
        value           nonuniform List<scalar> 
100
(
-0.0546056
-0.0538071
-0.0529833
-0.0521371
-0.0512711
-0.050388
-0.0494902
-0.0485801
-0.0476598
-0.0467313
-0.0457967
-0.0448577
-0.0439163
-0.0429742
-0.0420333
-0.0410956
-0.0401639
-0.0392417
-0.038336
-0.037452
-0.0365846
-0.0357272
-0.03488
-0.0340432
-0.0332168
-0.0324009
-0.0315957
-0.0308012
-0.0300175
-0.0292444
-0.0284821
-0.0277304
-0.0269895
-0.0262594
-0.02554
-0.0248314
-0.0241337
-0.0234467
-0.0227707
-0.0221055
-0.0214512
-0.0208079
-0.0201755
-0.019554
-0.0189435
-0.018344
-0.0177554
-0.0171777
-0.0166109
-0.016055
-0.0155099
-0.0149756
-0.014452
-0.0139392
-0.013437
-0.0129453
-0.0124642
-0.0119935
-0.011533
-0.0110829
-0.0106428
-0.0102128
-0.00979279
-0.00938255
-0.00898201
-0.00859104
-0.0082095
-0.00783726
-0.00747415
-0.00712004
-0.0067748
-0.00643827
-0.00611034
-0.00579083
-0.00547886
-0.00517399
-0.00487677
-0.00458748
-0.00430625
-0.00403309
-0.00376796
-0.00351076
-0.00326136
-0.00301964
-0.00278543
-0.00255858
-0.00233894
-0.00212635
-0.00192064
-0.00172166
-0.00152926
-0.00134326
-0.00116354
-0.00098992
-0.000822266
-0.000660428
-0.000504262
-0.000353625
-0.000208377
-6.83828e-05
)
;
    }
    outlet
    {
        type            cyclic;
        value           nonuniform List<scalar> 
100
(
0.0546056
0.0538071
0.0529833
0.0521371
0.0512711
0.050388
0.0494902
0.0485801
0.0476598
0.0467313
0.0457967
0.0448577
0.0439163
0.0429742
0.0420333
0.0410956
0.0401639
0.0392417
0.038336
0.037452
0.0365846
0.0357272
0.03488
0.0340432
0.0332168
0.0324009
0.0315957
0.0308012
0.0300175
0.0292444
0.0284821
0.0277304
0.0269895
0.0262594
0.02554
0.0248314
0.0241337
0.0234467
0.0227707
0.0221055
0.0214512
0.0208079
0.0201755
0.019554
0.0189435
0.018344
0.0177554
0.0171777
0.0166109
0.016055
0.0155099
0.0149756
0.014452
0.0139392
0.013437
0.0129453
0.0124642
0.0119935
0.011533
0.0110829
0.0106428
0.0102128
0.00979279
0.00938255
0.00898201
0.00859104
0.0082095
0.00783726
0.00747415
0.00712004
0.0067748
0.00643827
0.00611034
0.00579083
0.00547886
0.00517399
0.00487677
0.00458748
0.00430625
0.00403309
0.00376796
0.00351076
0.00326136
0.00301964
0.00278543
0.00255858
0.00233894
0.00212635
0.00192064
0.00172166
0.00152926
0.00134326
0.00116354
0.00098992
0.000822266
0.000660428
0.000504262
0.000353625
0.000208377
6.83828e-05
)
;
    }
    fixedWalls-bottom
    {
        type            calculated;
        value           uniform 0;
    }
    fixedWalls-top
    {
        type            symmetry;
        value           uniform 0;
    }
    frontAndBack
    {
        type            empty;
        value           nonuniform List<scalar> 0();
    }
}


// ************************************************************************* //
