/*--------------------------------*- C++ -*----------------------------------*\
  =========                 |
  \\      /  F ield         | OpenFOAM: The Open Source CFD Toolbox
   \\    /   O peration     | Website:  https://openfoam.org
    \\  /    A nd           | Version:  10
     \\/     M anipulation  |
\*---------------------------------------------------------------------------*/
FoamFile
{
    format      ascii;
    class       volSymmTensorField;
    location    "4356";
    object      R;
}
// * * * * * * * * * * * * * * * * * * * * * * * * * * * * * * * * * * * * * //

dimensions      [0 2 -2 0 0 0 0];

internalField   nonuniform List<symmTensor> 
400
(
(1.64283e-09 -4.62491e-14 -0 1.64283e-09 -0 1.64283e-09)
(1.64087e-09 -4.61943e-14 -0 1.64087e-09 -0 1.64087e-09)
(1.64017e-09 -4.61745e-14 -0 1.64017e-09 -0 1.64017e-09)
(1.64118e-09 -4.62026e-14 -0 1.64118e-09 -0 1.64118e-09)
(4.92896e-08 -8.07382e-12 -0 4.92896e-08 -0 4.92896e-08)
(4.92308e-08 -8.06427e-12 -0 4.92308e-08 -0 4.92308e-08)
(4.92098e-08 -8.06081e-12 -0 4.92098e-08 -0 4.92098e-08)
(4.92402e-08 -8.06573e-12 -0 4.92402e-08 -0 4.92402e-08)
(3.49101e-07 -1.69189e-10 -0 3.49101e-07 -0 3.49101e-07)
(3.48684e-07 -1.68989e-10 -0 3.48684e-07 -0 3.48684e-07)
(3.48535e-07 -1.68916e-10 -0 3.48535e-07 -0 3.48535e-07)
(3.4875e-07 -1.69019e-10 -0 3.4875e-07 -0 3.4875e-07)
(1.26934e-06 -1.30336e-09 -0 1.26934e-06 -0 1.26934e-06)
(1.26782e-06 -1.30181e-09 -0 1.26782e-06 -0 1.26782e-06)
(1.26728e-06 -1.30126e-09 -0 1.26728e-06 -0 1.26728e-06)
(1.26806e-06 -1.30205e-09 -0 1.26806e-06 -0 1.26806e-06)
(3.28482e-06 -5.93435e-09 -0 3.28482e-06 -0 3.28482e-06)
(3.28089e-06 -5.92727e-09 -0 3.28089e-06 -0 3.28089e-06)
(3.27949e-06 -5.92473e-09 -0 3.27949e-06 -0 3.27949e-06)
(3.28151e-06 -5.92838e-09 -0 3.28151e-06 -0 3.28151e-06)
(6.95761e-06 -1.97163e-08 -0 6.95761e-06 -0 6.95761e-06)
(6.94928e-06 -1.96926e-08 -0 6.94928e-06 -0 6.94928e-06)
(6.94631e-06 -1.96842e-08 -0 6.94631e-06 -0 6.94631e-06)
(6.95058e-06 -1.96964e-08 -0 6.95058e-06 -0 6.95058e-06)
(1.29327e-05 -5.32293e-08 -0 1.29327e-05 -0 1.29327e-05)
(1.29172e-05 -5.31649e-08 -0 1.29172e-05 -0 1.29172e-05)
(1.29117e-05 -5.31423e-08 -0 1.29117e-05 -0 1.29117e-05)
(1.29196e-05 -5.31757e-08 -0 1.29196e-05 -0 1.29196e-05)
(2.19385e-05 -1.24171e-07 -0 2.19385e-05 -0 2.19385e-05)
(2.19123e-05 -1.24019e-07 -0 2.19123e-05 -0 2.19123e-05)
(2.19029e-05 -1.23967e-07 -0 2.19029e-05 -0 2.19029e-05)
(2.19162e-05 -1.24046e-07 -0 2.19162e-05 -0 2.19162e-05)
(3.47891e-05 -2.60028e-07 -0 3.47891e-05 -0 3.47891e-05)
(3.47476e-05 -2.59707e-07 -0 3.47476e-05 -0 3.47476e-05)
(3.47328e-05 -2.59598e-07 -0 3.47328e-05 -0 3.47328e-05)
(3.47537e-05 -2.59768e-07 -0 3.47537e-05 -0 3.47537e-05)
(5.23867e-05 -5.01464e-07 -0 5.23867e-05 -0 5.23867e-05)
(5.23244e-05 -5.00837e-07 -0 5.23244e-05 -0 5.23244e-05)
(5.23019e-05 -5.00628e-07 -0 5.23019e-05 -0 5.23019e-05)
(5.23332e-05 -5.00966e-07 -0 5.23332e-05 -0 5.23332e-05)
(7.57216e-05 -9.06944e-07 -0 7.57216e-05 -0 7.57216e-05)
(7.56319e-05 -9.05789e-07 -0 7.56319e-05 -0 7.56319e-05)
(7.55994e-05 -9.05416e-07 -0 7.55994e-05 -0 7.55994e-05)
(7.5644e-05 -9.06049e-07 -0 7.5644e-05 -0 7.5644e-05)
(0.000105868 -1.55958e-06 -0 0.000105868 -0 0.000105868)
(0.000105743 -1.55755e-06 -0 0.000105743 -0 0.000105743)
(0.000105698 -1.55691e-06 -0 0.000105698 -0 0.000105698)
(0.000105759 -1.55804e-06 -0 0.000105759 -0 0.000105759)
(0.000143971 -2.57778e-06 -0 0.000143971 -0 0.000143971)
(0.000143802 -2.57429e-06 -0 0.000143802 -0 0.000143802)
(0.00014374 -2.57326e-06 -0 0.00014374 -0 0.00014374)
(0.000143822 -2.57521e-06 -0 0.000143822 -0 0.000143822)
(0.00019122 -4.13192e-06 -0 0.00019122 -0 0.00019122)
(0.000190998 -4.12602e-06 -0 0.000190998 -0 0.000190998)
(0.000190916 -4.12439e-06 -0 0.000190916 -0 0.000190916)
(0.000191021 -4.12764e-06 -0 0.000191021 -0 0.000191021)
(0.000248811 -6.47028e-06 -0 0.000248811 -0 0.000248811)
(0.000248527 -6.46041e-06 -0 0.000248527 -0 0.000248527)
(0.000248419 -6.45789e-06 -0 0.000248419 -0 0.000248419)
(0.000248552 -6.46317e-06 -0 0.000248552 -0 0.000248552)
(0.000317893 -9.95916e-06 -0 0.000317893 -0 0.000317893)
(0.000317536 -9.94262e-06 -0 0.000317536 -0 0.000317536)
(0.000317397 -9.93879e-06 -0 0.000317397 -0 0.000317397)
(0.000317562 -9.94719e-06 -0 0.000317562 -0 0.000317562)
(0.000399498 -1.51441e-05 -0 0.000399498 -0 0.000399498)
(0.000399059 -1.51163e-05 -0 0.000399059 -0 0.000399059)
(0.000398885 -1.51105e-05 -0 0.000398885 -0 0.000398885)
(0.000399084 -1.51237e-05 -0 0.000399084 -0 0.000399084)
(0.000494472 -2.2844e-05 -0 0.000494472 -0 0.000494472)
(0.000493946 -2.27971e-05 -0 0.000493946 -0 0.000493946)
(0.00049373 -2.27884e-05 -0 0.00049373 -0 0.00049373)
(0.000493966 -2.28088e-05 -0 0.000493966 -0 0.000493966)
(0.000603402 -3.42956e-05 -0 0.000603402 -0 0.000603402)
(0.000602785 -3.42157e-05 -0 0.000602784 -0 0.000602784)
(0.000602521 -3.42026e-05 -0 0.000602521 -0 0.000602521)
(0.000602796 -3.42344e-05 -0 0.000602796 -0 0.000602796)
(0.000726554 -5.13751e-05 -0 0.000726554 -0 0.000726554)
(0.000725846 -5.12389e-05 -0 0.000725846 -0 0.000725846)
(0.000725528 -5.12188e-05 -0 0.000725528 -0 0.000725528)
(0.000725844 -5.12688e-05 -0 0.000725844 -0 0.000725844)
(0.000863824 -7.69399e-05 -0 0.000863825 -0 0.000863825)
(0.000863031 -7.67069e-05 -0 0.000863031 -0 0.000863031)
(0.000862655 -7.66757e-05 -0 0.000862655 -0 0.000862655)
(0.000863012 -7.67559e-05 -0 0.000863012 -0 0.000863012)
(0.00101471 -0.000115348 -0 0.00101471 -0 0.00101471)
(0.00101385 -0.00011495 -0 0.00101385 -0 0.00101385)
(0.00101341 -0.0001149 -0 0.00101341 -0 0.00101341)
(0.0010138 -0.000115032 -0 0.0010138 -0 0.0010138)
(0.0011783 -0.000173237 -0 0.0011783 -0 0.0011783)
(0.00117738 -0.000172562 -0 0.00117738 -0 0.00117738)
(0.00117688 -0.000172477 -0 0.00117688 -0 0.00117688)
(0.00117731 -0.000172703 -0 0.00117731 -0 0.00117731)
(0.00135325 -0.000260658 -0 0.00135325 -0 0.00135325)
(0.0013523 -0.000259524 -0 0.0013523 -0 0.0013523)
(0.00135172 -0.000259387 -0 0.00135172 -0 0.00135172)
(0.00135219 -0.000259773 -0 0.00135219 -0 0.00135219)
(0.00153774 -0.000392603 -0 0.00153774 -0 0.00153774)
(0.0015368 -0.000390744 -0 0.0015368 -0 0.0015368)
(0.00153615 -0.000390501 -0 0.00153615 -0 0.00153615)
(0.00153665 -0.000391183 -0 0.00153665 -0 0.00153665)
(0.00172944 -0.000590803 -0 0.00172944 -0 0.00172944)
(0.00172855 -0.000587852 -0 0.00172855 -0 0.00172855)
(0.00172784 -0.000587361 -0 0.00172783 -0 0.00172783)
(0.00172834 -0.000588636 -0 0.00172834 -0 0.00172834)
(0.00192535 -0.000887479 -0 0.00192536 -0 0.00192535)
(0.00192455 -0.000882895 -0 0.00192455 -0 0.00192455)
(0.00192378 -0.00088187 -0 0.00192378 -0 0.00192378)
(0.00192429 -0.000884309 -0 0.00192428 -0 0.00192429)
(0.00212255 -0.000986984 -0 0.00212255 -0 0.00212255)
(0.00212188 -0.000986677 -0 0.00212189 -0 0.00212189)
(0.00212107 -0.000986297 -0 0.00212107 -0 0.00212107)
(0.00212155 -0.000986518 -0 0.00212154 -0 0.00212154)
(0.00231979 -0.0010787 -0 0.00231979 -0 0.00231979)
(0.00231927 -0.00107846 -0 0.00231928 -0 0.00231928)
(0.00231842 -0.00107806 -0 0.00231842 -0 0.00231842)
(0.00231886 -0.00107827 -0 0.00231886 -0 0.00231886)
(0.00251546 -0.00116969 -0 0.00251546 -0 0.00251546)
(0.0025151 -0.00116952 -0 0.00251511 -0 0.00251511)
(0.00251422 -0.00116911 -0 0.00251421 -0 0.00251422)
(0.00251462 -0.0011693 -0 0.00251461 -0 0.00251461)
(0.00270801 -0.00125922 -0 0.00270801 -0 0.00270801)
(0.00270783 -0.00125914 -0 0.00270783 -0 0.00270783)
(0.00270692 -0.00125872 -0 0.00270692 -0 0.00270692)
(0.00270727 -0.00125888 -0 0.00270726 -0 0.00270726)
(0.00289601 -0.00134664 -0 0.00289601 -0 0.00289601)
(0.00289601 -0.00134665 -0 0.00289602 -0 0.00289602)
(0.00289509 -0.00134622 -0 0.00289509 -0 0.00289509)
(0.00289537 -0.00134635 -0 0.00289537 -0 0.00289537)
(0.00307814 -0.00143134 -0 0.00307815 -0 0.00307815)
(0.00307835 -0.00143143 -0 0.00307836 -0 0.00307835)
(0.00307742 -0.001431 -0 0.00307741 -0 0.00307742)
(0.00307763 -0.00143109 -0 0.00307762 -0 0.00307762)
(0.0032532 -0.00151274 -0 0.0032532 -0 0.0032532)
(0.00325361 -0.00151293 -0 0.00325362 -0 0.00325362)
(0.00325267 -0.00151249 -0 0.00325267 -0 0.00325267)
(0.0032528 -0.00151255 -0 0.0032528 -0 0.0032528)
(0.00342013 -0.00159036 -0 0.00342014 -0 0.00342014)
(0.00342069 -0.00159062 -0 0.0034207 -0 0.00342069)
(0.00341973 -0.00159017 -0 0.00341973 -0 0.00341973)
(0.00341984 -0.00159022 -0 0.00341984 -0 0.00341984)
(0.003581 -0.00166517 -0 0.00358101 -0 0.00358101)
(0.00358165 -0.00166547 -0 0.00358165 -0 0.00358165)
(0.00358065 -0.001665 -0 0.00358064 -0 0.00358065)
(0.0035808 -0.00166507 -0 0.0035808 -0 0.0035808)
(0.00373731 -0.00173785 -0 0.00373732 -0 0.00373731)
(0.003738 -0.00173817 -0 0.003738 -0 0.003738)
(0.00373695 -0.00173768 -0 0.00373695 -0 0.00373695)
(0.0037372 -0.0017378 -0 0.0037372 -0 0.0037372)
(0.00389012 -0.0018089 -0 0.00389012 -0 0.00389012)
(0.0038908 -0.00180922 -0 0.0038908 -0 0.0038908)
(0.0038897 -0.00180871 -0 0.0038897 -0 0.0038897)
(0.00389008 -0.00180889 -0 0.00389008 -0 0.00389008)
(0.00404012 -0.00187866 -0 0.00404012 -0 0.00404012)
(0.00404076 -0.00187895 -0 0.00404076 -0 0.00404076)
(0.00403962 -0.00187843 -0 0.00403962 -0 0.00403962)
(0.00404016 -0.00187868 -0 0.00404016 -0 0.00404016)
(0.00418776 -0.00194731 -0 0.00418776 -0 0.00418776)
(0.00418834 -0.00194758 -0 0.00418833 -0 0.00418833)
(0.00418716 -0.00194703 -0 0.00418716 -0 0.00418716)
(0.00418788 -0.00194736 -0 0.00418788 -0 0.00418788)
(0.00433328 -0.00201497 -0 0.00433327 -0 0.00433328)
(0.00433375 -0.00201519 -0 0.00433375 -0 0.00433375)
(0.00433255 -0.00201463 -0 0.00433255 -0 0.00433255)
(0.00433347 -0.00201507 -0 0.00433348 -0 0.00433347)
(0.00447674 -0.00208168 -0 0.00447674 -0 0.00447674)
(0.0044771 -0.00208185 -0 0.00447709 -0 0.0044771)
(0.00447586 -0.00208128 -0 0.00447587 -0 0.00447586)
(0.00447701 -0.00208181 -0 0.00447702 -0 0.00447702)
(0.00461812 -0.00214742 -0 0.00461811 -0 0.00461812)
(0.00461834 -0.00214753 -0 0.00461833 -0 0.00461833)
(0.00461708 -0.00214694 -0 0.00461708 -0 0.00461708)
(0.00461848 -0.0021476 -0 0.00461849 -0 0.00461849)
(0.00475729 -0.00221214 -0 0.00475728 -0 0.00475729)
(0.00475735 -0.00221216 -0 0.00475733 -0 0.00475734)
(0.00475606 -0.00221157 -0 0.00475606 -0 0.00475606)
(0.00475774 -0.00221235 -0 0.00475775 -0 0.00475775)
(0.00489406 -0.00227574 -0 0.00489405 -0 0.00489406)
(0.00489393 -0.00227567 -0 0.00489391 -0 0.00489392)
(0.00489262 -0.00227507 -0 0.00489262 -0 0.00489262)
(0.0048946 -0.00227599 -0 0.00489462 -0 0.00489461)
(0.00502818 -0.0023381 -0 0.00502817 -0 0.00502817)
(0.00502784 -0.00233794 -0 0.00502782 -0 0.00502783)
(0.0050265 -0.00233733 -0 0.00502651 -0 0.00502651)
(0.00502882 -0.00233841 -0 0.00502885 -0 0.00502883)
(0.00515935 -0.0023991 -0 0.00515934 -0 0.00515935)
(0.00515878 -0.00239883 -0 0.00515875 -0 0.00515877)
(0.00515742 -0.0023982 -0 0.00515743 -0 0.00515743)
(0.00516011 -0.00239946 -0 0.00516014 -0 0.00516012)
(0.00528725 -0.00245857 -0 0.00528724 -0 0.00528724)
(0.00528641 -0.00245817 -0 0.00528638 -0 0.00528639)
(0.00528504 -0.00245754 -0 0.00528505 -0 0.00528504)
(0.00528813 -0.00245899 -0 0.00528816 -0 0.00528815)
(0.00541149 -0.00251634 -0 0.00541148 -0 0.00541148)
(0.00541036 -0.00251581 -0 0.00541033 -0 0.00541034)
(0.00540898 -0.00251518 -0 0.00540899 -0 0.00540899)
(0.00541251 -0.00251683 -0 0.00541255 -0 0.00541253)
(0.00553168 -0.00257223 -0 0.00553166 -0 0.00553167)
(0.00553023 -0.00257155 -0 0.00553019 -0 0.00553021)
(0.00552884 -0.00257092 -0 0.00552886 -0 0.00552885)
(0.00553286 -0.00257279 -0 0.0055329 -0 0.00553288)
(0.00564737 -0.00262602 -0 0.00564735 -0 0.00564736)
(0.00564559 -0.00262519 -0 0.00564555 -0 0.00564557)
(0.00564419 -0.00262455 -0 0.0056442 -0 0.0056442)
(0.00564873 -0.00262667 -0 0.00564877 -0 0.00564875)
(0.00575809 -0.00267751 -0 0.00575807 -0 0.00575808)
(0.00575595 -0.00267651 -0 0.00575591 -0 0.00575593)
(0.00575455 -0.00267587 -0 0.00575456 -0 0.00575456)
(0.00575964 -0.00267824 -0 0.00575968 -0 0.00575966)
(0.00586332 -0.00272644 -0 0.0058633 -0 0.00586331)
(0.00586083 -0.00272528 -0 0.00586079 -0 0.00586081)
(0.00585941 -0.00272463 -0 0.00585943 -0 0.00585942)
(0.00586509 -0.00272728 -0 0.00586513 -0 0.00586511)
(0.00596251 -0.00277256 -0 0.0059625 -0 0.0059625)
(0.00595968 -0.00277124 -0 0.00595963 -0 0.00595965)
(0.00595823 -0.00277058 -0 0.00595825 -0 0.00595824)
(0.00596453 -0.00277352 -0 0.00596457 -0 0.00596455)
(0.00605509 -0.00281561 -0 0.00605506 -0 0.00605507)
(0.0060519 -0.00281412 -0 0.00605186 -0 0.00605188)
(0.00605042 -0.00281345 -0 0.00605044 -0 0.00605043)
(0.00605737 -0.00281669 -0 0.00605741 -0 0.00605739)
(0.0061404 -0.00285528 -0 0.00614038 -0 0.00614039)
(0.00613689 -0.00285364 -0 0.00613685 -0 0.00613687)
(0.00613536 -0.00285295 -0 0.00613538 -0 0.00613537)
(0.00614298 -0.00285649 -0 0.00614302 -0 0.006143)
(0.00621778 -0.00289126 -0 0.00621775 -0 0.00621776)
(0.00621396 -0.00288948 -0 0.00621392 -0 0.00621394)
(0.00621238 -0.00288876 -0 0.0062124 -0 0.00621239)
(0.00622068 -0.00289263 -0 0.00622072 -0 0.0062207)
(0.00628649 -0.00292321 -0 0.00628647 -0 0.00628648)
(0.00628241 -0.00292131 -0 0.00628237 -0 0.00628239)
(0.00628076 -0.00292056 -0 0.00628079 -0 0.00628078)
(0.00628975 -0.00292474 -0 0.00628979 -0 0.00628977)
(0.00634578 -0.00295078 -0 0.00634575 -0 0.00634577)
(0.00634146 -0.00294877 -0 0.00634143 -0 0.00634145)
(0.00633975 -0.00294799 -0 0.00633978 -0 0.00633976)
(0.00634942 -0.00295249 -0 0.00634946 -0 0.00634944)
(0.00639481 -0.00297358 -0 0.00639478 -0 0.00639479)
(0.00639031 -0.00297149 -0 0.00639028 -0 0.00639029)
(0.00638853 -0.00297067 -0 0.00638855 -0 0.00638854)
(0.00639886 -0.00297548 -0 0.00639889 -0 0.00639887)
(0.00643271 -0.0029912 -0 0.00643269 -0 0.0064327)
(0.00642807 -0.00298905 -0 0.00642805 -0 0.00642806)
(0.00642623 -0.0029882 -0 0.00642625 -0 0.00642624)
(0.00643719 -0.0029933 -0 0.00643721 -0 0.0064372)
(0.00645856 -0.00300323 -0 0.00645854 -0 0.00645855)
(0.00645383 -0.00300103 -0 0.00645382 -0 0.00645382)
(0.00645193 -0.00300015 -0 0.00645195 -0 0.00645194)
(0.00646347 -0.00300552 -0 0.00646348 -0 0.00646347)
(0.00647139 -0.00300919 -0 0.00647137 -0 0.00647138)
(0.00646662 -0.00300698 -0 0.00646661 -0 0.00646662)
(0.00646466 -0.00300607 -0 0.00646467 -0 0.00646467)
(0.0064767 -0.00301167 -0 0.00647671 -0 0.0064767)
(0.00647016 -0.00300862 -0 0.00647015 -0 0.00647015)
(0.00646541 -0.00300642 -0 0.00646541 -0 0.00646541)
(0.00646339 -0.00300548 -0 0.0064634 -0 0.0064634)
(0.00647584 -0.00301126 -0 0.00647583 -0 0.00647584)
(0.00645379 -0.00300101 -0 0.00645379 -0 0.00645379)
(0.00644913 -0.00299885 -0 0.00644915 -0 0.00644914)
(0.00644705 -0.00299788 -0 0.00644706 -0 0.00644705)
(0.00645977 -0.00300379 -0 0.00645976 -0 0.00645976)
(0.00642116 -0.00298584 -0 0.00642117 -0 0.00642116)
(0.00641666 -0.00298375 -0 0.00641669 -0 0.00641667)
(0.00641452 -0.00298275 -0 0.00641451 -0 0.00641451)
(0.00642734 -0.00298871 -0 0.00642731 -0 0.00642733)
(0.0063711 -0.00296257 -0 0.00637112 -0 0.00637111)
(0.00636684 -0.00296059 -0 0.00636688 -0 0.00636686)
(0.00636462 -0.00295955 -0 0.00636461 -0 0.00636462)
(0.00637734 -0.00296546 -0 0.0063773 -0 0.00637732)
(0.00630244 -0.00293064 -0 0.00630246 -0 0.00630245)
(0.00629848 -0.0029288 -0 0.00629853 -0 0.0062985)
(0.00629618 -0.00292772 -0 0.00629615 -0 0.00629616)
(0.00630853 -0.00293345 -0 0.00630848 -0 0.0063085)
(0.00621394 -0.00288949 -0 0.00621398 -0 0.00621396)
(0.00621036 -0.00288783 -0 0.00621042 -0 0.00621039)
(0.00620796 -0.00288669 -0 0.00620792 -0 0.00620794)
(0.00621962 -0.00289211 -0 0.00621956 -0 0.00621959)
(0.00610441 -0.00283856 -0 0.00610446 -0 0.00610443)
(0.00610124 -0.00283709 -0 0.00610131 -0 0.00610127)
(0.00609872 -0.00283589 -0 0.00609866 -0 0.00609869)
(0.00610932 -0.00284082 -0 0.00610925 -0 0.00610928)
(0.00597258 -0.00277726 -0 0.00597264 -0 0.00597261)
(0.00596984 -0.00277599 -0 0.00596991 -0 0.00596988)
(0.00596717 -0.00277472 -0 0.00596711 -0 0.00596714)
(0.00597625 -0.00277894 -0 0.00597617 -0 0.00597621)
(0.00581711 -0.00270497 -0 0.00581717 -0 0.00581714)
(0.00581473 -0.00270387 -0 0.00581481 -0 0.00581477)
(0.0058119 -0.00270252 -0 0.00581183 -0 0.00581186)
(0.00581896 -0.0027058 -0 0.00581888 -0 0.00581892)
(0.00563737 -0.00262139 -0 0.00563744 -0 0.00563741)
(0.00563542 -0.00262049 -0 0.00563549 -0 0.00563545)
(0.00563246 -0.00261908 -0 0.00563239 -0 0.00563242)
(0.00563779 -0.00262156 -0 0.00563772 -0 0.00563776)
(0.00543395 -0.0025268 -0 0.00543401 -0 0.00543398)
(0.00543239 -0.00252607 -0 0.00543245 -0 0.00543242)
(0.00542935 -0.00252463 -0 0.00542929 -0 0.00542932)
(0.00543324 -0.00252644 -0 0.00543317 -0 0.0054332)
(0.00520754 -0.00242152 -0 0.0052076 -0 0.00520757)
(0.00520631 -0.00242095 -0 0.00520636 -0 0.00520634)
(0.00520325 -0.0024195 -0 0.00520319 -0 0.00520322)
(0.00520595 -0.00242075 -0 0.00520589 -0 0.00520592)
(0.00495904 -0.00230597 -0 0.0049591 -0 0.00495907)
(0.00495812 -0.00230554 -0 0.00495817 -0 0.00495815)
(0.00495505 -0.00230409 -0 0.004955 -0 0.00495503)
(0.00495684 -0.00230492 -0 0.0049568 -0 0.00495682)
(0.00468968 -0.00218071 -0 0.00468972 -0 0.0046897)
(0.00468907 -0.00218042 -0 0.00468909 -0 0.00468908)
(0.00468596 -0.00217896 -0 0.00468591 -0 0.00468594)
(0.00468711 -0.0021795 -0 0.00468709 -0 0.0046871)
(0.00440096 -0.00204646 -0 0.004401 -0 0.00440098)
(0.00440069 -0.00204632 -0 0.00440069 -0 0.00440069)
(0.0043975 -0.00204483 -0 0.00439746 -0 0.00439748)
(0.00439827 -0.00204519 -0 0.00439826 -0 0.00439826)
(0.00409477 -0.00190407 -0 0.0040948 -0 0.00409478)
(0.00409484 -0.0019041 -0 0.00409482 -0 0.00409483)
(0.0040915 -0.00190254 -0 0.00409147 -0 0.00409149)
(0.0040921 -0.00190283 -0 0.00409212 -0 0.00409211)
(0.00377306 -0.00175448 -0 0.00377309 -0 0.00377308)
(0.00377343 -0.00175464 -0 0.00377339 -0 0.00377341)
(0.00376994 -0.00175302 -0 0.00376991 -0 0.00376993)
(0.0037705 -0.00175329 -0 0.00377054 -0 0.00377052)
(0.00343788 -0.00159862 -0 0.0034379 -0 0.00343789)
(0.00343847 -0.00159888 -0 0.00343842 -0 0.00343844)
(0.00343486 -0.00159721 -0 0.00343484 -0 0.00343485)
(0.00343544 -0.00159749 -0 0.00343549 -0 0.00343547)
(0.0030868 -0.00104389 -0 0.00308679 -0 0.00308679)
(0.00308754 -0.00104813 -0 0.00308753 -0 0.00308753)
(0.00308366 -0.00102786 -0 0.00308367 -0 0.00308366)
(0.00308449 -0.00104211 -0 0.0030845 -0 0.0030845)
(0.00272449 -0.00058618 -0 0.00272447 -0 0.00272448)
(0.00272528 -0.000588429 -0 0.00272529 -0 0.00272529)
(0.00272131 -0.00057959 -0 0.00272133 -0 0.00272132)
(0.00272236 -0.000585934 -0 0.00272235 -0 0.00272235)
(0.00236727 -0.000356587 -0 0.00236726 -0 0.00236726)
(0.00236791 -0.000357284 -0 0.00236792 -0 0.00236791)
(0.00236432 -0.000353191 -0 0.00236433 -0 0.00236432)
(0.00236534 -0.000356398 -0 0.00236533 -0 0.00236533)
(0.00202961 -0.000229388 -0 0.0020296 -0 0.00202961)
(0.00202996 -0.000228956 -0 0.00202997 -0 0.00202996)
(0.002027 -0.000227549 -0 0.00202701 -0 0.002027)
(0.00202789 -0.000229072 -0 0.00202788 -0 0.00202788)
(0.00172013 -0.000153166 -0 0.00172012 -0 0.00172013)
(0.00172021 -0.000152817 -0 0.00172021 -0 0.00172021)
(0.0017179 -0.00015216 -0 0.00171791 -0 0.00171791)
(0.00171864 -0.000152933 -0 0.00171864 -0 0.00171864)
(0.00144314 -0.000105132 -0 0.00144313 -0 0.00144314)
(0.001443 -0.000104841 -0 0.001443 -0 0.001443)
(0.00144132 -0.000104657 -0 0.00144132 -0 0.00144132)
(0.00144192 -0.00010502 -0 0.00144192 -0 0.00144192)
(0.00120003 -7.34792e-05 -0 0.00120003 -0 0.00120003)
(0.00119973 -7.31868e-05 -0 0.00119973 -0 0.00119973)
(0.00119858 -7.32879e-05 -0 0.00119858 -0 0.00119858)
(0.0011991 -7.34551e-05 -0 0.0011991 -0 0.0011991)
(0.000990155 -5.18518e-05 -0 0.000990153 -0 0.000990154)
(0.000989777 -5.16229e-05 -0 0.000989777 -0 0.000989777)
(0.000989008 -5.17635e-05 -0 0.00098901 -0 0.000989009)
(0.000989508 -5.18697e-05 -0 0.000989508 -0 0.000989508)
(0.000811524 -3.66581e-05 -0 0.000811523 -0 0.000811523)
(0.000811128 -3.65094e-05 -0 0.000811127 -0 0.000811128)
(0.000810619 -3.66126e-05 -0 0.00081062 -0 0.000810619)
(0.000811132 -3.67095e-05 -0 0.000811132 -0 0.000811132)
(0.000661409 -2.58345e-05 -0 0.000661409 -0 0.000661409)
(0.000661043 -2.57486e-05 -0 0.000661042 -0 0.000661043)
(0.000660688 -2.58071e-05 -0 0.000660688 -0 0.000660688)
(0.000661234 -2.58987e-05 -0 0.000661234 -0 0.000661234)
(0.000536782 -1.80831e-05 -0 0.000536782 -0 0.000536782)
(0.000536469 -1.80398e-05 -0 0.000536468 -0 0.000536469)
(0.000536196 -1.80645e-05 -0 0.000536196 -0 0.000536196)
(0.000536778 -1.81488e-05 -0 0.000536778 -0 0.000536778)
(0.000434591 -1.2538e-05 -0 0.000434591 -0 0.000434591)
(0.000434332 -1.25212e-05 -0 0.000434332 -0 0.000434332)
(0.000434104 -1.2525e-05 -0 0.000434104 -0 0.000434104)
(0.000434711 -1.26011e-05 -0 0.000434711 -0 0.000434711)
(0.000351925 -8.5923e-06 -0 0.000351925 -0 0.000351925)
(0.000351727 -8.59028e-06 -0 0.000351727 -0 0.000351727)
(0.000351522 -8.58533e-06 -0 0.000351522 -0 0.000351522)
(0.000352138 -8.64966e-06 -0 0.000352138 -0 0.000352138)
(0.000286147 -5.81187e-06 -0 0.000286147 -0 0.000286147)
(0.000286004 -5.81657e-06 -0 0.000286004 -0 0.000286004)
(0.000285817 -5.81008e-06 -0 0.000285817 -0 0.000285817)
(0.000286424 -5.86061e-06 -0 0.000286424 -0 0.000286424)
(0.000234931 -3.86875e-06 -0 0.000234931 -0 0.000234931)
(0.000234832 -3.8754e-06 -0 0.000234832 -0 0.000234832)
(0.000234666 -3.87021e-06 -0 0.000234666 -0 0.000234666)
(0.00023525 -3.90751e-06 -0 0.00023525 -0 0.00023525)
(0.000196301 -2.51204e-06 -0 0.000196301 -0 0.000196301)
(0.000196233 -2.51815e-06 -0 0.000196232 -0 0.000196232)
(0.000196089 -2.51492e-06 -0 0.000196089 -0 0.000196089)
(0.000196642 -2.54077e-06 -0 0.000196642 -0 0.000196642)
(0.000168658 -1.55232e-06 -0 0.000168658 -0 0.000168658)
(0.000168609 -1.55686e-06 -0 0.000168609 -0 0.000168609)
(0.000168487 -1.55525e-06 -0 0.000168487 -0 0.000168487)
(0.000169008 -1.57183e-06 -0 0.000169008 -0 0.000169008)
(0.000150818 -8.43938e-07 -0 0.000150818 -0 0.000150818)
(0.000150778 -8.46636e-07 -0 0.000150778 -0 0.000150778)
(0.000150674 -8.4604e-07 -0 0.000150674 -0 0.000150674)
(0.000151169 -8.55184e-07 -0 0.00015117 -0 0.00015117)
(0.000142034 -2.69222e-07 -0 0.000142034 -0 0.000142034)
(0.000141998 -2.70095e-07 -0 0.000141998 -0 0.000141998)
(0.000141903 -2.69977e-07 -0 0.000141903 -0 0.000141903)
(0.000142384 -2.72888e-07 -0 0.000142384 -0 0.000142384)
)
;

boundaryField
{
    inlet
    {
        type            cyclic;
    }
    outlet
    {
        type            cyclic;
    }
    fixedWalls-bottom
    {
        type            kqRWallFunction;
        value           nonuniform List<symmTensor> 4((1.64283e-09 -0 -0 1.64283e-09 -0 1.64283e-09) (1.64087e-09 -0 -0 1.64087e-09 -0 1.64087e-09) (1.64017e-09 -0 -0 1.64017e-09 -0 1.64017e-09) (1.64118e-09 -0 -0 1.64118e-09 -0 1.64118e-09));
    }
    fixedWalls-top
    {
        type            symmetry;
    }
    frontAndBack
    {
        type            empty;
    }
}


// ************************************************************************* //
