/*--------------------------------*- C++ -*----------------------------------*\
  =========                 |
  \\      /  F ield         | OpenFOAM: The Open Source CFD Toolbox
   \\    /   O peration     | Website:  https://openfoam.org
    \\  /    A nd           | Version:  10
     \\/     M anipulation  |
\*---------------------------------------------------------------------------*/
FoamFile
{
    format      ascii;
    class       volScalarField;
    location    "5000";
    object      k;
}
// * * * * * * * * * * * * * * * * * * * * * * * * * * * * * * * * * * * * * //

dimensions      [0 2 -2 0 0 0 0];

internalField   nonuniform List<scalar> 
400
(
3.56153e-12
3.55829e-12
3.55663e-12
3.55871e-12
1.06839e-10
1.06742e-10
1.06692e-10
1.06755e-10
7.56582e-10
7.55893e-10
7.5554e-10
7.55982e-10
2.75048e-09
2.74797e-09
2.74669e-09
2.74829e-09
7.11634e-09
7.10984e-09
7.10652e-09
7.11067e-09
1.50698e-08
1.5056e-08
1.5049e-08
1.50577e-08
2.80042e-08
2.79786e-08
2.79655e-08
2.79818e-08
4.74911e-08
4.74477e-08
4.74256e-08
4.74531e-08
7.52845e-08
7.52158e-08
7.51807e-08
7.52242e-08
1.13325e-07
1.13222e-07
1.13169e-07
1.13234e-07
1.6374e-07
1.63591e-07
1.63514e-07
1.63608e-07
2.28833e-07
2.28624e-07
2.28518e-07
2.28648e-07
3.11055e-07
3.10772e-07
3.10627e-07
3.10802e-07
4.12952e-07
4.12578e-07
4.12386e-07
4.12616e-07
5.3708e-07
5.36597e-07
5.36347e-07
5.36642e-07
6.85891e-07
6.85281e-07
6.84961e-07
6.85333e-07
8.61598e-07
8.60842e-07
8.6044e-07
8.609e-07
1.06602e-06
1.0651e-06
1.06461e-06
1.06517e-06
1.30045e-06
1.29936e-06
1.29875e-06
1.29942e-06
1.56552e-06
1.56425e-06
1.56352e-06
1.56432e-06
1.86115e-06
1.8597e-06
1.85884e-06
1.85977e-06
2.18651e-06
2.1849e-06
2.18389e-06
2.18496e-06
2.54006e-06
2.5383e-06
2.53714e-06
2.53836e-06
2.91958e-06
2.91771e-06
2.91638e-06
2.91775e-06
3.32227e-06
3.32033e-06
3.31882e-06
3.32036e-06
3.74478e-06
3.74281e-06
3.74112e-06
3.74282e-06
4.18315e-06
4.18121e-06
4.17934e-06
4.1812e-06
4.63268e-06
4.63083e-06
4.62879e-06
4.63081e-06
5.08757e-06
5.0859e-06
5.08369e-06
5.08586e-06
5.54375e-06
5.54229e-06
5.53993e-06
5.54224e-06
5.99803e-06
5.99679e-06
5.99431e-06
5.99675e-06
6.44743e-06
6.44642e-06
6.44384e-06
6.44639e-06
6.88915e-06
6.88838e-06
6.88572e-06
6.88837e-06
7.32059e-06
7.32005e-06
7.31734e-06
7.32008e-06
7.73929e-06
7.73899e-06
7.73624e-06
7.73904e-06
8.14422e-06
8.14409e-06
8.14126e-06
8.14416e-06
8.53877e-06
8.53872e-06
8.53577e-06
8.53882e-06
8.9253e-06
8.92529e-06
8.9222e-06
8.92541e-06
9.30542e-06
9.30541e-06
9.30217e-06
9.30557e-06
9.68015e-06
9.68012e-06
9.67672e-06
9.6803e-06
1.00501e-05
1.005e-05
1.00464e-05
1.00502e-05
1.04154e-05
1.04152e-05
1.04115e-05
1.04155e-05
1.07761e-05
1.07759e-05
1.0772e-05
1.07762e-05
1.11319e-05
1.11317e-05
1.11275e-05
1.1132e-05
1.14825e-05
1.14823e-05
1.14779e-05
1.14826e-05
1.18275e-05
1.18272e-05
1.18227e-05
1.18276e-05
1.21663e-05
1.21659e-05
1.21611e-05
1.21664e-05
1.24982e-05
1.24977e-05
1.24928e-05
1.24983e-05
1.28225e-05
1.2822e-05
1.28168e-05
1.28226e-05
1.31385e-05
1.3138e-05
1.31325e-05
1.31387e-05
1.34455e-05
1.34448e-05
1.34391e-05
1.34457e-05
1.37424e-05
1.37417e-05
1.37357e-05
1.37427e-05
1.40284e-05
1.40277e-05
1.40214e-05
1.40288e-05
1.43026e-05
1.43017e-05
1.42952e-05
1.4303e-05
1.45638e-05
1.45629e-05
1.4556e-05
1.45644e-05
1.48111e-05
1.481e-05
1.48029e-05
1.48117e-05
1.50431e-05
1.5042e-05
1.50346e-05
1.50439e-05
1.52589e-05
1.52577e-05
1.52499e-05
1.52597e-05
1.54569e-05
1.54557e-05
1.54476e-05
1.54578e-05
1.5636e-05
1.56346e-05
1.56262e-05
1.56368e-05
1.57947e-05
1.57932e-05
1.57844e-05
1.57953e-05
1.59314e-05
1.59298e-05
1.59207e-05
1.5932e-05
1.60447e-05
1.60429e-05
1.60335e-05
1.60453e-05
1.61329e-05
1.61309e-05
1.61211e-05
1.61335e-05
1.61942e-05
1.6192e-05
1.61819e-05
1.61948e-05
1.62269e-05
1.62245e-05
1.62141e-05
1.62276e-05
1.62291e-05
1.62265e-05
1.62158e-05
1.62299e-05
1.6199e-05
1.61962e-05
1.61851e-05
1.61999e-05
1.61346e-05
1.61316e-05
1.61203e-05
1.61356e-05
1.6034e-05
1.60309e-05
1.60194e-05
1.60352e-05
1.58954e-05
1.58921e-05
1.58805e-05
1.58967e-05
1.57168e-05
1.57135e-05
1.57019e-05
1.57183e-05
1.54966e-05
1.54933e-05
1.54817e-05
1.54982e-05
1.5233e-05
1.52297e-05
1.52183e-05
1.52346e-05
1.49242e-05
1.4921e-05
1.49099e-05
1.49259e-05
1.45683e-05
1.45654e-05
1.45546e-05
1.45699e-05
1.4163e-05
1.41606e-05
1.415e-05
1.41644e-05
1.37051e-05
1.37032e-05
1.36927e-05
1.37061e-05
1.31898e-05
1.31884e-05
1.31775e-05
1.319e-05
1.26176e-05
1.26165e-05
1.26053e-05
1.26171e-05
1.1992e-05
1.19911e-05
1.19796e-05
1.19907e-05
1.13169e-05
1.13161e-05
1.13042e-05
1.13148e-05
1.05969e-05
1.05961e-05
1.05838e-05
1.0594e-05
9.83879e-06
9.83794e-06
9.82525e-06
9.83509e-06
9.05264e-06
9.0518e-06
9.03873e-06
9.04814e-06
8.24989e-06
8.24901e-06
8.23604e-06
8.24457e-06
7.45129e-06
7.45059e-06
7.43804e-06
7.44535e-06
6.67361e-06
6.67324e-06
6.66131e-06
6.66723e-06
5.93092e-06
5.93091e-06
5.91973e-06
5.92423e-06
5.23491e-06
5.23539e-06
5.22503e-06
5.2282e-06
4.5952e-06
4.59625e-06
4.58675e-06
4.58876e-06
4.01894e-06
4.02056e-06
4.01192e-06
4.01303e-06
3.51043e-06
3.51257e-06
3.50474e-06
3.50526e-06
3.07124e-06
3.07378e-06
3.06667e-06
3.06687e-06
2.70071e-06
2.70351e-06
2.69701e-06
2.69708e-06
2.39696e-06
2.39988e-06
2.3939e-06
2.39395e-06
2.15759e-06
2.16055e-06
2.15499e-06
2.15508e-06
1.98022e-06
1.98316e-06
1.97793e-06
1.97809e-06
1.8628e-06
1.8657e-06
1.8607e-06
1.86091e-06
1.80403e-06
1.8069e-06
1.80203e-06
1.80226e-06
)
;

boundaryField
{
    inlet
    {
        type            cyclic;
    }
    outlet
    {
        type            cyclic;
    }
    fixedWalls-bottom
    {
        type            kqRWallFunction;
        value           nonuniform List<scalar> 4(3.56153e-12 3.55829e-12 3.55663e-12 3.55871e-12);
    }
    fixedWalls-top
    {
        type            symmetry;
    }
    frontAndBack
    {
        type            empty;
    }
}


// ************************************************************************* //
