/*--------------------------------*- C++ -*----------------------------------*\
  =========                 |
  \\      /  F ield         | OpenFOAM: The Open Source CFD Toolbox
   \\    /   O peration     | Website:  https://openfoam.org
    \\  /    A nd           | Version:  10
     \\/     M anipulation  |
\*---------------------------------------------------------------------------*/
FoamFile
{
    format      ascii;
    class       volSymmTensorField;
    location    "5000";
    object      R;
}
// * * * * * * * * * * * * * * * * * * * * * * * * * * * * * * * * * * * * * //

dimensions      [0 2 -2 0 0 0 0];

internalField   nonuniform List<symmTensor> 
400
(
(2.37435e-12 -4.45047e-17 -0 2.37435e-12 -0 2.37435e-12)
(2.37219e-12 -4.44643e-17 -0 2.37219e-12 -0 2.37219e-12)
(2.37109e-12 -4.44435e-17 -0 2.37109e-12 -0 2.37109e-12)
(2.37247e-12 -4.44695e-17 -0 2.37247e-12 -0 2.37247e-12)
(7.12261e-11 -7.76798e-15 -0 7.12261e-11 -0 7.12261e-11)
(7.11613e-11 -7.76093e-15 -0 7.11613e-11 -0 7.11613e-11)
(7.11281e-11 -7.75731e-15 -0 7.11281e-11 -0 7.11281e-11)
(7.11697e-11 -7.76184e-15 -0 7.11697e-11 -0 7.11697e-11)
(5.04388e-10 -1.62753e-13 -0 5.04388e-10 -0 5.04388e-10)
(5.03929e-10 -1.62605e-13 -0 5.03929e-10 -0 5.03929e-10)
(5.03694e-10 -1.62529e-13 -0 5.03694e-10 -0 5.03694e-10)
(5.03988e-10 -1.62624e-13 -0 5.03988e-10 -0 5.03988e-10)
(1.83365e-09 -1.25356e-12 -0 1.83365e-09 -0 1.83365e-09)
(1.83198e-09 -1.25242e-12 -0 1.83198e-09 -0 1.83198e-09)
(1.83112e-09 -1.25184e-12 -0 1.83112e-09 -0 1.83112e-09)
(1.83219e-09 -1.25257e-12 -0 1.83219e-09 -0 1.83219e-09)
(4.74423e-09 -5.70656e-12 -0 4.74423e-09 -0 4.74423e-09)
(4.73989e-09 -5.70135e-12 -0 4.73989e-09 -0 4.73989e-09)
(4.73768e-09 -5.69869e-12 -0 4.73768e-09 -0 4.73768e-09)
(4.74045e-09 -5.70203e-12 -0 4.74045e-09 -0 4.74045e-09)
(1.00465e-08 -1.89555e-11 -0 1.00465e-08 -0 1.00465e-08)
(1.00373e-08 -1.89382e-11 -0 1.00373e-08 -0 1.00373e-08)
(1.00326e-08 -1.89293e-11 -0 1.00326e-08 -0 1.00326e-08)
(1.00385e-08 -1.89405e-11 -0 1.00385e-08 -0 1.00385e-08)
(1.86694e-08 -5.11637e-11 -0 1.86694e-08 -0 1.86694e-08)
(1.86524e-08 -5.11167e-11 -0 1.86524e-08 -0 1.86524e-08)
(1.86437e-08 -5.10929e-11 -0 1.86437e-08 -0 1.86437e-08)
(1.86545e-08 -5.11231e-11 -0 1.86545e-08 -0 1.86545e-08)
(3.16608e-08 -1.19322e-10 -0 3.16608e-08 -0 3.16608e-08)
(3.16318e-08 -1.19212e-10 -0 3.16318e-08 -0 3.16318e-08)
(3.16171e-08 -1.19157e-10 -0 3.16171e-08 -0 3.16171e-08)
(3.16354e-08 -1.19228e-10 -0 3.16354e-08 -0 3.16354e-08)
(5.01897e-08 -2.49804e-10 -0 5.01897e-08 -0 5.01897e-08)
(5.01438e-08 -2.49573e-10 -0 5.01438e-08 -0 5.01438e-08)
(5.01205e-08 -2.49457e-10 -0 5.01205e-08 -0 5.01205e-08)
(5.01495e-08 -2.49607e-10 -0 5.01495e-08 -0 5.01495e-08)
(7.555e-08 -4.81598e-10 -0 7.555e-08 -0 7.555e-08)
(7.54811e-08 -4.81149e-10 -0 7.54811e-08 -0 7.54811e-08)
(7.54459e-08 -4.80927e-10 -0 7.54459e-08 -0 7.54459e-08)
(7.54893e-08 -4.81221e-10 -0 7.54893e-08 -0 7.54893e-08)
(1.0916e-07 -8.70716e-10 -0 1.0916e-07 -0 1.0916e-07)
(1.0906e-07 -8.69898e-10 -0 1.0906e-07 -0 1.0906e-07)
(1.0901e-07 -8.69497e-10 -0 1.0901e-07 -0 1.0901e-07)
(1.09072e-07 -8.70038e-10 -0 1.09072e-07 -0 1.09072e-07)
(1.52555e-07 -1.49672e-09 -0 1.52555e-07 -0 1.52555e-07)
(1.52416e-07 -1.49529e-09 -0 1.52416e-07 -0 1.52416e-07)
(1.52345e-07 -1.4946e-09 -0 1.52345e-07 -0 1.52345e-07)
(1.52432e-07 -1.49555e-09 -0 1.52432e-07 -0 1.52432e-07)
(2.0737e-07 -2.47283e-09 -0 2.0737e-07 -0 2.0737e-07)
(2.07181e-07 -2.4704e-09 -0 2.07181e-07 -0 2.07181e-07)
(2.07085e-07 -2.46928e-09 -0 2.07085e-07 -0 2.07085e-07)
(2.07202e-07 -2.47088e-09 -0 2.07202e-07 -0 2.07202e-07)
(2.75301e-07 -3.96181e-09 -0 2.75301e-07 -0 2.75301e-07)
(2.75052e-07 -3.95776e-09 -0 2.75052e-07 -0 2.75052e-07)
(2.74924e-07 -3.95596e-09 -0 2.74924e-07 -0 2.74924e-07)
(2.75077e-07 -3.95859e-09 -0 2.75077e-07 -0 2.75077e-07)
(3.58053e-07 -6.20065e-09 -0 3.58053e-07 -0 3.58053e-07)
(3.57731e-07 -6.19392e-09 -0 3.57731e-07 -0 3.57731e-07)
(3.57564e-07 -6.19113e-09 -0 3.57564e-07 -0 3.57564e-07)
(3.57761e-07 -6.19533e-09 -0 3.57761e-07 -0 3.57761e-07)
(4.57261e-07 -9.5386e-09 -0 4.57261e-07 -0 4.57261e-07)
(4.56854e-07 -9.52743e-09 -0 4.56854e-07 -0 4.56854e-07)
(4.56641e-07 -9.52315e-09 -0 4.56641e-07 -0 4.56641e-07)
(4.56889e-07 -9.52974e-09 -0 4.56889e-07 -0 4.56889e-07)
(5.74399e-07 -1.44956e-08 -0 5.74399e-07 -0 5.74399e-07)
(5.73894e-07 -1.44769e-08 -0 5.73894e-07 -0 5.73894e-07)
(5.73627e-07 -1.44704e-08 -0 5.73627e-07 -0 5.73627e-07)
(5.73933e-07 -1.44806e-08 -0 5.73933e-07 -0 5.73933e-07)
(7.1068e-07 -2.18517e-08 -0 7.1068e-07 -0 7.1068e-07)
(7.10068e-07 -2.18202e-08 -0 7.10068e-07 -0 7.10068e-07)
(7.09737e-07 -2.18104e-08 -0 7.09737e-07 -0 7.09737e-07)
(7.10111e-07 -2.18262e-08 -0 7.10111e-07 -0 7.10111e-07)
(8.66965e-07 -3.27853e-08 -0 8.66965e-07 -0 8.66965e-07)
(8.66238e-07 -3.27317e-08 -0 8.66238e-07 -0 8.66238e-07)
(8.65834e-07 -3.2717e-08 -0 8.65834e-07 -0 8.65834e-07)
(8.66282e-07 -3.27414e-08 -0 8.66282e-07 -0 8.66282e-07)
(1.04368e-06 -4.90874e-08 -0 1.04368e-06 -0 1.04368e-06)
(1.04283e-06 -4.89953e-08 -0 1.04283e-06 -0 1.04283e-06)
(1.04235e-06 -4.89733e-08 -0 1.04235e-06 -0 1.04235e-06)
(1.04288e-06 -4.90114e-08 -0 1.04288e-06 -0 1.04288e-06)
(1.24077e-06 -7.34946e-08 -0 1.24077e-06 -0 1.24077e-06)
(1.2398e-06 -7.33357e-08 -0 1.2398e-06 -0 1.2398e-06)
(1.23923e-06 -7.33023e-08 -0 1.23923e-06 -0 1.23923e-06)
(1.23985e-06 -7.33626e-08 -0 1.23985e-06 -0 1.23985e-06)
(1.45768e-06 -1.10211e-07 -0 1.45768e-06 -0 1.45768e-06)
(1.4566e-06 -1.09936e-07 -0 1.4566e-06 -0 1.4566e-06)
(1.45593e-06 -1.09885e-07 -0 1.45593e-06 -0 1.45593e-06)
(1.45664e-06 -1.09982e-07 -0 1.45664e-06 -0 1.45664e-06)
(1.69337e-06 -1.65724e-07 -0 1.69337e-06 -0 1.69337e-06)
(1.6922e-06 -1.65247e-07 -0 1.6922e-06 -0 1.6922e-06)
(1.69142e-06 -1.65166e-07 -0 1.69142e-06 -0 1.69142e-06)
(1.69224e-06 -1.65326e-07 -0 1.69224e-06 -0 1.69224e-06)
(1.94639e-06 -2.5008e-07 -0 1.94639e-06 -0 1.94639e-06)
(1.94514e-06 -2.49253e-07 -0 1.94514e-06 -0 1.94514e-06)
(1.94425e-06 -2.49131e-07 -0 1.94425e-06 -0 1.94425e-06)
(1.94517e-06 -2.49393e-07 -0 1.94517e-06 -0 1.94517e-06)
(2.21485e-06 -3.78847e-07 -0 2.21485e-06 -0 2.21485e-06)
(2.21355e-06 -3.77426e-07 -0 2.21355e-06 -0 2.21355e-06)
(2.21255e-06 -3.77238e-07 -0 2.21255e-06 -0 2.21255e-06)
(2.21357e-06 -3.77669e-07 -0 2.21357e-06 -0 2.21357e-06)
(2.49652e-06 -5.76075e-07 -0 2.49652e-06 -0 2.49652e-06)
(2.4952e-06 -5.73671e-07 -0 2.4952e-06 -0 2.4952e-06)
(2.49408e-06 -5.73358e-07 -0 2.49408e-06 -0 2.49408e-06)
(2.49521e-06 -5.74076e-07 -0 2.49521e-06 -0 2.49521e-06)
(2.78877e-06 -8.78494e-07 -0 2.78877e-06 -0 2.78877e-06)
(2.78747e-06 -8.74529e-07 -0 2.78747e-06 -0 2.78747e-06)
(2.78623e-06 -8.73948e-07 -0 2.78623e-06 -0 2.78623e-06)
(2.78747e-06 -8.75167e-07 -0 2.78747e-06 -0 2.78747e-06)
(3.08845e-06 -1.34085e-06 -0 3.08845e-06 -0 3.08845e-06)
(3.08722e-06 -1.33452e-06 -0 3.08722e-06 -0 3.08722e-06)
(3.08586e-06 -1.33334e-06 -0 3.08586e-06 -0 3.08586e-06)
(3.08721e-06 -1.33547e-06 -0 3.08721e-06 -0 3.08721e-06)
(3.39171e-06 -1.57715e-06 -0 3.39171e-06 -0 3.39171e-06)
(3.3906e-06 -1.57663e-06 -0 3.3906e-06 -0 3.3906e-06)
(3.38913e-06 -1.57594e-06 -0 3.38913e-06 -0 3.38913e-06)
(3.39057e-06 -1.57662e-06 -0 3.39057e-06 -0 3.39057e-06)
(3.69583e-06 -1.71856e-06 -0 3.69583e-06 -0 3.69583e-06)
(3.69486e-06 -1.71811e-06 -0 3.69486e-06 -0 3.69486e-06)
(3.69329e-06 -1.71738e-06 -0 3.69329e-06 -0 3.69329e-06)
(3.69482e-06 -1.71809e-06 -0 3.69482e-06 -0 3.69482e-06)
(3.99869e-06 -1.85939e-06 -0 3.99869e-06 -0 3.99869e-06)
(3.99786e-06 -1.85901e-06 -0 3.99786e-06 -0 3.99786e-06)
(3.9962e-06 -1.85824e-06 -0 3.9962e-06 -0 3.9962e-06)
(3.99783e-06 -1.85899e-06 -0 3.99783e-06 -0 3.99783e-06)
(4.29829e-06 -1.9987e-06 -0 4.29829e-06 -0 4.29829e-06)
(4.29761e-06 -1.99839e-06 -0 4.29761e-06 -0 4.29761e-06)
(4.29589e-06 -1.99759e-06 -0 4.29589e-06 -0 4.29589e-06)
(4.2976e-06 -1.99838e-06 -0 4.2976e-06 -0 4.2976e-06)
(4.59277e-06 -2.13564e-06 -0 4.59277e-06 -0 4.59277e-06)
(4.59225e-06 -2.1354e-06 -0 4.59225e-06 -0 4.59225e-06)
(4.59048e-06 -2.13457e-06 -0 4.59048e-06 -0 4.59048e-06)
(4.59225e-06 -2.1354e-06 -0 4.59225e-06 -0 4.59225e-06)
(4.88039e-06 -2.26938e-06 -0 4.88039e-06 -0 4.88039e-06)
(4.88003e-06 -2.26922e-06 -0 4.88003e-06 -0 4.88003e-06)
(4.87823e-06 -2.26838e-06 -0 4.87823e-06 -0 4.87823e-06)
(4.88005e-06 -2.26922e-06 -0 4.88005e-06 -0 4.88005e-06)
(5.15952e-06 -2.39918e-06 -0 5.15952e-06 -0 5.15952e-06)
(5.15933e-06 -2.39909e-06 -0 5.15933e-06 -0 5.15933e-06)
(5.1575e-06 -2.39824e-06 -0 5.1575e-06 -0 5.1575e-06)
(5.15936e-06 -2.3991e-06 -0 5.15936e-06 -0 5.15936e-06)
(5.42948e-06 -2.52471e-06 -0 5.42948e-06 -0 5.42948e-06)
(5.42939e-06 -2.52467e-06 -0 5.42939e-06 -0 5.42939e-06)
(5.4275e-06 -2.52379e-06 -0 5.4275e-06 -0 5.4275e-06)
(5.42944e-06 -2.52469e-06 -0 5.42944e-06 -0 5.42944e-06)
(5.69251e-06 -2.64702e-06 -0 5.69251e-06 -0 5.69251e-06)
(5.69248e-06 -2.647e-06 -0 5.69248e-06 -0 5.69248e-06)
(5.69051e-06 -2.64609e-06 -0 5.69051e-06 -0 5.69051e-06)
(5.69255e-06 -2.64703e-06 -0 5.69255e-06 -0 5.69255e-06)
(5.9502e-06 -2.76684e-06 -0 5.9502e-06 -0 5.9502e-06)
(5.95019e-06 -2.76684e-06 -0 5.95019e-06 -0 5.95019e-06)
(5.94813e-06 -2.76588e-06 -0 5.94813e-06 -0 5.94813e-06)
(5.95028e-06 -2.76688e-06 -0 5.95028e-06 -0 5.95028e-06)
(6.20361e-06 -2.88468e-06 -0 6.20361e-06 -0 6.20361e-06)
(6.20361e-06 -2.88468e-06 -0 6.20361e-06 -0 6.20361e-06)
(6.20145e-06 -2.88367e-06 -0 6.20145e-06 -0 6.20145e-06)
(6.20371e-06 -2.88473e-06 -0 6.20371e-06 -0 6.20371e-06)
(6.45343e-06 -3.00085e-06 -0 6.45343e-06 -0 6.45343e-06)
(6.45341e-06 -3.00084e-06 -0 6.45341e-06 -0 6.45341e-06)
(6.45115e-06 -2.99978e-06 -0 6.45115e-06 -0 6.45115e-06)
(6.45354e-06 -3.00089e-06 -0 6.45354e-06 -0 6.45354e-06)
(6.70004e-06 -3.11552e-06 -0 6.70004e-06 -0 6.70004e-06)
(6.69999e-06 -3.11549e-06 -0 6.69999e-06 -0 6.69999e-06)
(6.69761e-06 -3.11439e-06 -0 6.69761e-06 -0 6.69761e-06)
(6.70013e-06 -3.11556e-06 -0 6.70013e-06 -0 6.70013e-06)
(6.94358e-06 -3.22876e-06 -0 6.94358e-06 -0 6.94358e-06)
(6.9435e-06 -3.22873e-06 -0 6.9435e-06 -0 6.9435e-06)
(6.941e-06 -3.22757e-06 -0 6.941e-06 -0 6.941e-06)
(6.94366e-06 -3.2288e-06 -0 6.94366e-06 -0 6.94366e-06)
(7.18404e-06 -3.34058e-06 -0 7.18404e-06 -0 7.18404e-06)
(7.18392e-06 -3.34052e-06 -0 7.18392e-06 -0 7.18392e-06)
(7.1813e-06 -3.3393e-06 -0 7.1813e-06 -0 7.1813e-06)
(7.18411e-06 -3.34061e-06 -0 7.18411e-06 -0 7.18411e-06)
(7.42126e-06 -3.45089e-06 -0 7.42126e-06 -0 7.42126e-06)
(7.42111e-06 -3.45082e-06 -0 7.42111e-06 -0 7.42111e-06)
(7.41837e-06 -3.44954e-06 -0 7.41837e-06 -0 7.41837e-06)
(7.42133e-06 -3.45092e-06 -0 7.42133e-06 -0 7.42133e-06)
(7.65503e-06 -3.55959e-06 -0 7.65503e-06 -0 7.65503e-06)
(7.65484e-06 -3.5595e-06 -0 7.65484e-06 -0 7.65484e-06)
(7.65196e-06 -3.55816e-06 -0 7.65196e-06 -0 7.65196e-06)
(7.65508e-06 -3.55961e-06 -0 7.65508e-06 -0 7.65508e-06)
(7.88501e-06 -3.66653e-06 -0 7.88501e-06 -0 7.88501e-06)
(7.88479e-06 -3.66643e-06 -0 7.88479e-06 -0 7.88479e-06)
(7.88177e-06 -3.66502e-06 -0 7.88177e-06 -0 7.88177e-06)
(7.88507e-06 -3.66656e-06 -0 7.88507e-06 -0 7.88507e-06)
(8.11085e-06 -3.77155e-06 -0 8.11085e-06 -0 8.11085e-06)
(8.11059e-06 -3.77143e-06 -0 8.11059e-06 -0 8.11059e-06)
(8.10743e-06 -3.76995e-06 -0 8.10743e-06 -0 8.10743e-06)
(8.11091e-06 -3.77157e-06 -0 8.11091e-06 -0 8.11091e-06)
(8.33211e-06 -3.87443e-06 -0 8.33211e-06 -0 8.33211e-06)
(8.33182e-06 -3.8743e-06 -0 8.33182e-06 -0 8.33182e-06)
(8.3285e-06 -3.87275e-06 -0 8.3285e-06 -0 8.3285e-06)
(8.33218e-06 -3.87446e-06 -0 8.33218e-06 -0 8.33218e-06)
(8.54834e-06 -3.97498e-06 -0 8.54834e-06 -0 8.54834e-06)
(8.54801e-06 -3.97483e-06 -0 8.54801e-06 -0 8.54801e-06)
(8.54454e-06 -3.97321e-06 -0 8.54454e-06 -0 8.54454e-06)
(8.54843e-06 -3.97502e-06 -0 8.54843e-06 -0 8.54843e-06)
(8.75903e-06 -4.07295e-06 -0 8.75903e-06 -0 8.75903e-06)
(8.75866e-06 -4.07278e-06 -0 8.75866e-06 -0 8.75866e-06)
(8.75502e-06 -4.07108e-06 -0 8.75502e-06 -0 8.75502e-06)
(8.75914e-06 -4.073e-06 -0 8.75914e-06 -0 8.75914e-06)
(8.96364e-06 -4.16809e-06 -0 8.96364e-06 -0 8.96364e-06)
(8.96323e-06 -4.1679e-06 -0 8.96323e-06 -0 8.96323e-06)
(8.95941e-06 -4.16613e-06 -0 8.95941e-06 -0 8.95941e-06)
(8.96378e-06 -4.16816e-06 -0 8.96378e-06 -0 8.96378e-06)
(9.1616e-06 -4.26014e-06 -0 9.1616e-06 -0 9.1616e-06)
(9.16114e-06 -4.25993e-06 -0 9.16114e-06 -0 9.16114e-06)
(9.15714e-06 -4.25807e-06 -0 9.15714e-06 -0 9.15714e-06)
(9.16178e-06 -4.26023e-06 -0 9.16178e-06 -0 9.16178e-06)
(9.35229e-06 -4.34881e-06 -0 9.35229e-06 -0 9.35229e-06)
(9.35177e-06 -4.34857e-06 -0 9.35177e-06 -0 9.35177e-06)
(9.34759e-06 -4.34663e-06 -0 9.34759e-06 -0 9.34759e-06)
(9.35252e-06 -4.34892e-06 -0 9.35252e-06 -0 9.35252e-06)
(9.53505e-06 -4.4338e-06 -0 9.53505e-06 -0 9.53505e-06)
(9.53448e-06 -4.43353e-06 -0 9.53448e-06 -0 9.53448e-06)
(9.53011e-06 -4.4315e-06 -0 9.53011e-06 -0 9.53011e-06)
(9.53534e-06 -4.43393e-06 -0 9.53534e-06 -0 9.53534e-06)
(9.70921e-06 -4.51478e-06 -0 9.70921e-06 -0 9.70921e-06)
(9.70859e-06 -4.51449e-06 -0 9.70859e-06 -0 9.70859e-06)
(9.70402e-06 -4.51237e-06 -0 9.70402e-06 -0 9.70402e-06)
(9.70957e-06 -4.51495e-06 -0 9.70957e-06 -0 9.70957e-06)
(9.87404e-06 -4.59143e-06 -0 9.87404e-06 -0 9.87404e-06)
(9.87336e-06 -4.59111e-06 -0 9.87336e-06 -0 9.87336e-06)
(9.86859e-06 -4.58889e-06 -0 9.86859e-06 -0 9.86859e-06)
(9.87446e-06 -4.59163e-06 -0 9.87446e-06 -0 9.87446e-06)
(1.00288e-05 -4.66338e-06 -0 1.00288e-05 -0 1.00288e-05)
(1.0028e-05 -4.66303e-06 -0 1.0028e-05 -0 1.0028e-05)
(1.00231e-05 -4.66072e-06 -0 1.00231e-05 -0 1.00231e-05)
(1.00293e-05 -4.6636e-06 -0 1.00293e-05 -0 1.00293e-05)
(1.01726e-05 -4.73025e-06 -0 1.01726e-05 -0 1.01726e-05)
(1.01718e-05 -4.72988e-06 -0 1.01718e-05 -0 1.01718e-05)
(1.01666e-05 -4.72747e-06 -0 1.01666e-05 -0 1.01666e-05)
(1.01731e-05 -4.7305e-06 -0 1.01731e-05 -0 1.01731e-05)
(1.03046e-05 -4.79165e-06 -0 1.03046e-05 -0 1.03046e-05)
(1.03038e-05 -4.79125e-06 -0 1.03038e-05 -0 1.03038e-05)
(1.02984e-05 -4.78874e-06 -0 1.02984e-05 -0 1.02984e-05)
(1.03052e-05 -4.79191e-06 -0 1.03052e-05 -0 1.03052e-05)
(1.0424e-05 -4.84716e-06 -0 1.0424e-05 -0 1.0424e-05)
(1.04231e-05 -4.84674e-06 -0 1.04231e-05 -0 1.04231e-05)
(1.04175e-05 -4.84413e-06 -0 1.04175e-05 -0 1.04175e-05)
(1.04245e-05 -4.84742e-06 -0 1.04245e-05 -0 1.04245e-05)
(1.05298e-05 -4.89635e-06 -0 1.05298e-05 -0 1.05298e-05)
(1.05288e-05 -4.89588e-06 -0 1.05288e-05 -0 1.05288e-05)
(1.0523e-05 -4.89317e-06 -0 1.0523e-05 -0 1.0523e-05)
(1.05302e-05 -4.89655e-06 -0 1.05302e-05 -0 1.05302e-05)
(1.0621e-05 -4.93874e-06 -0 1.0621e-05 -0 1.0621e-05)
(1.06199e-05 -4.93824e-06 -0 1.06199e-05 -0 1.06199e-05)
(1.06138e-05 -4.93542e-06 -0 1.06138e-05 -0 1.06138e-05)
(1.06213e-05 -4.93892e-06 -0 1.06213e-05 -0 1.06213e-05)
(1.06965e-05 -4.97386e-06 -0 1.06965e-05 -0 1.06965e-05)
(1.06953e-05 -4.9733e-06 -0 1.06953e-05 -0 1.06953e-05)
(1.0689e-05 -4.97038e-06 -0 1.0689e-05 -0 1.0689e-05)
(1.06969e-05 -4.97404e-06 -0 1.06969e-05 -0 1.06969e-05)
(1.07553e-05 -5.00119e-06 -0 1.07553e-05 -0 1.07553e-05)
(1.07539e-05 -5.00058e-06 -0 1.07539e-05 -0 1.07539e-05)
(1.07474e-05 -4.99755e-06 -0 1.07474e-05 -0 1.07474e-05)
(1.07556e-05 -5.00138e-06 -0 1.07556e-05 -0 1.07556e-05)
(1.07961e-05 -5.0202e-06 -0 1.07961e-05 -0 1.07961e-05)
(1.07947e-05 -5.01953e-06 -0 1.07947e-05 -0 1.07947e-05)
(1.07879e-05 -5.01639e-06 -0 1.07879e-05 -0 1.07879e-05)
(1.07966e-05 -5.0204e-06 -0 1.07966e-05 -0 1.07966e-05)
(1.08179e-05 -5.03034e-06 -0 1.08179e-05 -0 1.08179e-05)
(1.08163e-05 -5.0296e-06 -0 1.08163e-05 -0 1.08163e-05)
(1.08094e-05 -5.02636e-06 -0 1.08094e-05 -0 1.08094e-05)
(1.08184e-05 -5.03056e-06 -0 1.08184e-05 -0 1.08184e-05)
(1.08194e-05 -5.03103e-06 -0 1.08194e-05 -0 1.08194e-05)
(1.08177e-05 -5.03023e-06 -0 1.08177e-05 -0 1.08177e-05)
(1.08105e-05 -5.02688e-06 -0 1.08105e-05 -0 1.08105e-05)
(1.082e-05 -5.03128e-06 -0 1.082e-05 -0 1.082e-05)
(1.07993e-05 -5.02169e-06 -0 1.07993e-05 -0 1.07993e-05)
(1.07975e-05 -5.02082e-06 -0 1.07975e-05 -0 1.07975e-05)
(1.07901e-05 -5.01739e-06 -0 1.07901e-05 -0 1.07901e-05)
(1.07999e-05 -5.02197e-06 -0 1.07999e-05 -0 1.07999e-05)
(1.07564e-05 -5.00172e-06 -0 1.07564e-05 -0 1.07564e-05)
(1.07544e-05 -5.0008e-06 -0 1.07544e-05 -0 1.07544e-05)
(1.07469e-05 -4.99729e-06 -0 1.07469e-05 -0 1.07469e-05)
(1.07571e-05 -5.00205e-06 -0 1.07571e-05 -0 1.07571e-05)
(1.06893e-05 -4.97054e-06 -0 1.06893e-05 -0 1.06893e-05)
(1.06873e-05 -4.96958e-06 -0 1.06873e-05 -0 1.06873e-05)
(1.06796e-05 -4.96601e-06 -0 1.06796e-05 -0 1.06796e-05)
(1.06901e-05 -4.97091e-06 -0 1.06901e-05 -0 1.06901e-05)
(1.05969e-05 -4.92757e-06 -0 1.05969e-05 -0 1.05969e-05)
(1.05948e-05 -4.92656e-06 -0 1.05948e-05 -0 1.05948e-05)
(1.0587e-05 -4.92296e-06 -0 1.0587e-05 -0 1.0587e-05)
(1.05978e-05 -4.92798e-06 -0 1.05978e-05 -0 1.05978e-05)
(1.04779e-05 -4.87222e-06 -0 1.04779e-05 -0 1.04779e-05)
(1.04757e-05 -4.87119e-06 -0 1.04757e-05 -0 1.04757e-05)
(1.04679e-05 -4.86758e-06 -0 1.04679e-05 -0 1.04679e-05)
(1.04789e-05 -4.87267e-06 -0 1.04789e-05 -0 1.04789e-05)
(1.03311e-05 -4.80396e-06 -0 1.03311e-05 -0 1.03311e-05)
(1.03289e-05 -4.80292e-06 -0 1.03289e-05 -0 1.03289e-05)
(1.03211e-05 -4.79933e-06 -0 1.03211e-05 -0 1.03211e-05)
(1.03321e-05 -4.80444e-06 -0 1.03321e-05 -0 1.03321e-05)
(1.01553e-05 -4.72223e-06 -0 1.01553e-05 -0 1.01553e-05)
(1.01531e-05 -4.72121e-06 -0 1.01531e-05 -0 1.01531e-05)
(1.01455e-05 -4.71767e-06 -0 1.01455e-05 -0 1.01455e-05)
(1.01564e-05 -4.72274e-06 -0 1.01564e-05 -0 1.01564e-05)
(9.94946e-06 -4.6265e-06 -0 9.94946e-06 -0 9.94946e-06)
(9.94737e-06 -4.62553e-06 -0 9.94737e-06 -0 9.94737e-06)
(9.93991e-06 -4.62206e-06 -0 9.93991e-06 -0 9.93991e-06)
(9.95057e-06 -4.62702e-06 -0 9.95057e-06 -0 9.95057e-06)
(9.71219e-06 -4.51617e-06 -0 9.71219e-06 -0 9.71219e-06)
(9.71029e-06 -4.51529e-06 -0 9.71029e-06 -0 9.71029e-06)
(9.70304e-06 -4.51191e-06 -0 9.70304e-06 -0 9.70304e-06)
(9.71327e-06 -4.51667e-06 -0 9.71327e-06 -0 9.71327e-06)
(9.44199e-06 -4.39053e-06 -0 9.44199e-06 -0 9.44199e-06)
(9.44037e-06 -4.38977e-06 -0 9.44037e-06 -0 9.44037e-06)
(9.4333e-06 -4.38649e-06 -0 9.4333e-06 -0 9.4333e-06)
(9.44294e-06 -4.39097e-06 -0 9.44294e-06 -0 9.44294e-06)
(9.13672e-06 -4.24857e-06 -0 9.13672e-06 -0 9.13672e-06)
(9.13545e-06 -4.24798e-06 -0 9.13545e-06 -0 9.13545e-06)
(9.12845e-06 -4.24473e-06 -0 9.12845e-06 -0 9.12845e-06)
(9.13739e-06 -4.24889e-06 -0 9.13739e-06 -0 9.13739e-06)
(8.79319e-06 -4.08883e-06 -0 8.79319e-06 -0 8.79319e-06)
(8.79224e-06 -4.08839e-06 -0 8.79224e-06 -0 8.79224e-06)
(8.78497e-06 -4.08501e-06 -0 8.78497e-06 -0 8.78497e-06)
(8.79331e-06 -4.08889e-06 -0 8.79331e-06 -0 8.79331e-06)
(8.41176e-06 -3.91147e-06 -0 8.41176e-06 -0 8.41176e-06)
(8.41101e-06 -3.91112e-06 -0 8.41101e-06 -0 8.41101e-06)
(8.40352e-06 -3.90764e-06 -0 8.40352e-06 -0 8.40352e-06)
(8.41138e-06 -3.91129e-06 -0 8.41138e-06 -0 8.41138e-06)
(7.99469e-06 -3.71753e-06 -0 7.99469e-06 -0 7.99469e-06)
(7.99407e-06 -3.71724e-06 -0 7.99407e-06 -0 7.99407e-06)
(7.98637e-06 -3.71366e-06 -0 7.98637e-06 -0 7.98637e-06)
(7.99382e-06 -3.71713e-06 -0 7.99382e-06 -0 7.99382e-06)
(7.54459e-06 -3.50824e-06 -0 7.54459e-06 -0 7.54459e-06)
(7.54404e-06 -3.50798e-06 -0 7.54404e-06 -0 7.54404e-06)
(7.5361e-06 -3.50429e-06 -0 7.5361e-06 -0 7.5361e-06)
(7.54322e-06 -3.5076e-06 -0 7.54322e-06 -0 7.54322e-06)
(7.06459e-06 -3.28503e-06 -0 7.06459e-06 -0 7.06459e-06)
(7.06405e-06 -3.28478e-06 -0 7.06404e-06 -0 7.06404e-06)
(7.05584e-06 -3.28097e-06 -0 7.05584e-06 -0 7.05584e-06)
(7.06268e-06 -3.28414e-06 -0 7.06268e-06 -0 7.06268e-06)
(6.55919e-06 -3.05002e-06 -0 6.55919e-06 -0 6.55919e-06)
(6.55863e-06 -3.04976e-06 -0 6.55863e-06 -0 6.55863e-06)
(6.55016e-06 -3.04583e-06 -0 6.55016e-06 -0 6.55016e-06)
(6.55673e-06 -3.04888e-06 -0 6.55673e-06 -0 6.55673e-06)
(6.0351e-06 -2.80632e-06 -0 6.0351e-06 -0 6.0351e-06)
(6.03453e-06 -2.80606e-06 -0 6.03453e-06 -0 6.03453e-06)
(6.02582e-06 -2.7652e-06 -0 6.02582e-06 -0 6.02582e-06)
(6.03209e-06 -2.80492e-06 -0 6.03209e-06 -0 6.03209e-06)
(5.49993e-06 -1.75306e-06 -0 5.49993e-06 -0 5.49993e-06)
(5.49934e-06 -1.73953e-06 -0 5.49934e-06 -0 5.49934e-06)
(5.49069e-06 -1.71229e-06 -0 5.49069e-06 -0 5.49069e-06)
(5.49638e-06 -1.74326e-06 -0 5.49638e-06 -0 5.49638e-06)
(4.96752e-06 -1.10716e-06 -0 4.96752e-06 -0 4.96752e-06)
(4.96706e-06 -1.10043e-06 -0 4.96706e-06 -0 4.96706e-06)
(4.9587e-06 -1.08482e-06 -0 4.9587e-06 -0 4.9587e-06)
(4.96356e-06 -1.10097e-06 -0 4.96356e-06 -0 4.96356e-06)
(4.44907e-06 -7.11272e-07 -0 4.44907e-06 -0 4.44907e-06)
(4.44883e-06 -7.08631e-07 -0 4.44883e-06 -0 4.44883e-06)
(4.44087e-06 -6.9932e-07 -0 4.44087e-06 -0 4.44087e-06)
(4.44482e-06 -7.07622e-07 -0 4.44482e-06 -0 4.44482e-06)
(3.95395e-06 -4.63717e-07 -0 3.95395e-06 -0 3.95395e-06)
(3.95394e-06 -4.6348e-07 -0 3.95394e-06 -0 3.95394e-06)
(3.94649e-06 -4.57707e-07 -0 3.94649e-06 -0 3.94649e-06)
(3.94949e-06 -4.61867e-07 -0 3.94949e-06 -0 3.94949e-06)
(3.48994e-06 -3.07568e-07 -0 3.48994e-06 -0 3.48994e-06)
(3.49026e-06 -3.07575e-07 -0 3.49026e-06 -0 3.49026e-06)
(3.48335e-06 -3.04043e-07 -0 3.48335e-06 -0 3.48335e-06)
(3.48547e-06 -3.06108e-07 -0 3.48547e-06 -0 3.48547e-06)
(3.06347e-06 -2.07331e-07 -0 3.06347e-06 -0 3.06347e-06)
(3.06417e-06 -2.07418e-07 -0 3.06417e-06 -0 3.06417e-06)
(3.05784e-06 -2.0521e-07 -0 3.05784e-06 -0 3.05784e-06)
(3.05917e-06 -2.06232e-07 -0 3.05917e-06 -0 3.05917e-06)
(2.67929e-06 -1.42218e-07 -0 2.67929e-06 -0 2.67929e-06)
(2.68037e-06 -1.42327e-07 -0 2.68037e-06 -0 2.68037e-06)
(2.67461e-06 -1.40927e-07 -0 2.67461e-06 -0 2.67461e-06)
(2.67535e-06 -1.41443e-07 -0 2.67535e-06 -0 2.67535e-06)
(2.34029e-06 -9.91464e-08 -0 2.34029e-06 -0 2.34029e-06)
(2.34171e-06 -9.93199e-08 -0 2.34171e-06 -0 2.34171e-06)
(2.33649e-06 -9.83878e-08 -0 2.33649e-06 -0 2.33649e-06)
(2.33684e-06 -9.8679e-08 -0 2.33684e-06 -0 2.33684e-06)
(2.04749e-06 -6.99514e-08 -0 2.04749e-06 -0 2.04749e-06)
(2.04919e-06 -7.01228e-08 -0 2.04919e-06 -0 2.04919e-06)
(2.04445e-06 -6.94668e-08 -0 2.04445e-06 -0 2.04445e-06)
(2.04458e-06 -6.96735e-08 -0 2.04458e-06 -0 2.04458e-06)
(1.80048e-06 -4.9445e-08 -0 1.80048e-06 -0 1.80048e-06)
(1.80234e-06 -4.95839e-08 -0 1.80234e-06 -0 1.80234e-06)
(1.79801e-06 -4.91048e-08 -0 1.79801e-06 -0 1.79801e-06)
(1.79805e-06 -4.92763e-08 -0 1.79805e-06 -0 1.79805e-06)
(1.59797e-06 -3.4669e-08 -0 1.59797e-06 -0 1.59797e-06)
(1.59992e-06 -3.47719e-08 -0 1.59992e-06 -0 1.59992e-06)
(1.59593e-06 -3.44234e-08 -0 1.59593e-06 -0 1.59593e-06)
(1.59596e-06 -3.45686e-08 -0 1.59596e-06 -0 1.59596e-06)
(1.43839e-06 -2.38023e-08 -0 1.43839e-06 -0 1.43839e-06)
(1.44037e-06 -2.38732e-08 -0 1.44037e-06 -0 1.44037e-06)
(1.43666e-06 -2.36277e-08 -0 1.43666e-06 -0 1.43666e-06)
(1.43672e-06 -2.37463e-08 -0 1.43672e-06 -0 1.43672e-06)
(1.32015e-06 -1.55348e-08 -0 1.32015e-06 -0 1.32015e-06)
(1.32211e-06 -1.55796e-08 -0 1.32211e-06 -0 1.32211e-06)
(1.31862e-06 -1.54168e-08 -0 1.31862e-06 -0 1.31862e-06)
(1.31872e-06 -1.55059e-08 -0 1.31872e-06 -0 1.31872e-06)
(1.24187e-06 -8.8441e-09 -0 1.24187e-06 -0 1.24187e-06)
(1.2438e-06 -8.86827e-09 -0 1.2438e-06 -0 1.2438e-06)
(1.24047e-06 -8.77518e-09 -0 1.24047e-06 -0 1.24047e-06)
(1.24061e-06 -8.83086e-09 -0 1.24061e-06 -0 1.24061e-06)
(1.20269e-06 -2.90555e-09 -0 1.20269e-06 -0 1.20269e-06)
(1.2046e-06 -2.91305e-09 -0 1.2046e-06 -0 1.2046e-06)
(1.20135e-06 -2.88251e-09 -0 1.20135e-06 -0 1.20135e-06)
(1.20151e-06 -2.90167e-09 -0 1.20151e-06 -0 1.20151e-06)
)
;

boundaryField
{
    inlet
    {
        type            cyclic;
    }
    outlet
    {
        type            cyclic;
    }
    fixedWalls-bottom
    {
        type            kqRWallFunction;
        value           nonuniform List<symmTensor> 4((2.37435e-12 -0 -0 2.37435e-12 -0 2.37435e-12) (2.37219e-12 -0 -0 2.37219e-12 -0 2.37219e-12) (2.37109e-12 -0 -0 2.37109e-12 -0 2.37109e-12) (2.37247e-12 -0 -0 2.37247e-12 -0 2.37247e-12));
    }
    fixedWalls-top
    {
        type            symmetry;
    }
    frontAndBack
    {
        type            empty;
    }
}


// ************************************************************************* //
