/*--------------------------------*- C++ -*----------------------------------*\
  =========                 |
  \\      /  F ield         | OpenFOAM: The Open Source CFD Toolbox
   \\    /   O peration     | Website:  https://openfoam.org
    \\  /    A nd           | Version:  10
     \\/     M anipulation  |
\*---------------------------------------------------------------------------*/
FoamFile
{
    format      ascii;
    class       volScalarField;
    location    "144";
    object      k;
}
// * * * * * * * * * * * * * * * * * * * * * * * * * * * * * * * * * * * * * //

dimensions      [0 2 -2 0 0 0 0];

internalField   nonuniform List<scalar> 
200
(
2.04043e-15
2.0323e-15
2.03488e-15
2.0353e-15
6.08904e-14
6.06481e-14
6.07254e-14
6.07373e-14
4.35174e-13
4.33445e-13
4.34e-13
4.34082e-13
1.60019e-12
1.59384e-12
1.59589e-12
1.59619e-12
4.18094e-12
4.16433e-12
4.1698e-12
4.17057e-12
8.91587e-12
8.88044e-12
8.89243e-12
8.89413e-12
1.663e-11
1.65638e-11
1.65872e-11
1.65905e-11
2.82062e-11
2.80934e-11
2.81354e-11
2.81418e-11
4.45509e-11
4.43712e-11
4.44431e-11
4.44547e-11
6.65549e-11
6.62824e-11
6.64006e-11
6.64218e-11
9.50479e-11
9.46487e-11
9.48378e-11
9.48766e-11
1.30751e-10
1.30178e-10
1.30475e-10
1.30546e-10
1.74232e-10
1.73414e-10
1.7387e-10
1.74007e-10
2.25853e-10
2.24683e-10
2.25373e-10
2.2563e-10
2.85726e-10
2.84052e-10
2.85084e-10
2.85535e-10
3.53693e-10
3.51299e-10
3.52825e-10
3.53566e-10
4.29315e-10
4.25896e-10
4.28138e-10
4.2928e-10
5.11696e-10
5.07034e-10
5.10294e-10
5.11754e-10
5.99839e-10
5.93654e-10
5.98329e-10
5.99949e-10
6.92525e-10
6.84492e-10
6.91063e-10
6.92583e-10
7.88376e-10
7.78125e-10
7.86566e-10
7.88192e-10
8.85898e-10
8.73004e-10
8.82544e-10
8.85213e-10
9.83477e-10
9.67498e-10
9.78253e-10
9.81646e-10
1.07929e-09
1.06005e-09
1.07189e-09
1.07587e-09
1.17146e-09
1.14916e-09
1.16187e-09
1.16626e-09
1.25844e-09
1.23347e-09
1.24678e-09
1.25146e-09
1.3389e-09
1.31179e-09
1.32547e-09
1.33048e-09
1.41177e-09
1.38318e-09
1.39717e-09
1.40272e-09
1.47612e-09
1.4469e-09
1.4617e-09
1.46783e-09
1.53117e-09
1.50244e-09
1.51935e-09
1.52564e-09
1.57633e-09
1.54943e-09
1.57132e-09
1.57659e-09
1.61102e-09
1.58785e-09
1.62083e-09
1.6217e-09
1.63613e-09
1.61912e-09
1.64965e-09
1.66427e-09
1.65498e-09
1.64422e-09
1.66131e-09
1.68648e-09
1.66888e-09
1.66631e-09
1.65013e-09
1.69146e-09
1.68277e-09
1.65272e-09
1.63606e-09
1.68278e-09
1.66468e-09
1.63332e-09
1.6113e-09
1.6607e-09
1.60579e-09
1.59803e-09
1.57446e-09
1.62251e-09
1.54603e-09
1.5443e-09
1.52389e-09
1.55873e-09
1.4778e-09
1.47534e-09
1.45948e-09
1.50299e-09
1.40597e-09
1.39762e-09
1.38363e-09
1.41908e-09
1.33406e-09
1.30584e-09
1.30227e-09
1.30212e-09
1.22724e-09
1.20439e-09
1.22613e-09
1.19017e-09
1.09792e-09
1.09566e-09
1.12802e-09
1.08064e-09
9.76298e-10
9.85034e-10
1.02133e-09
9.73779e-10
8.75991e-10
8.81547e-10
9.16118e-10
8.7299e-10
8.022e-10
7.90133e-10
8.20179e-10
7.82867e-10
7.35751e-10
7.1291e-10
7.39853e-10
7.08117e-10
6.78195e-10
6.55044e-10
6.7987e-10
6.52862e-10
6.445e-10
6.21414e-10
6.45229e-10
6.20713e-10
)
;

boundaryField
{
    inlet
    {
        type            cyclic;
    }
    outlet
    {
        type            cyclic;
    }
    fixedWalls-bottom
    {
        type            kqRWallFunction;
        value           nonuniform List<scalar> 4(2.04043e-15 2.0323e-15 2.03488e-15 2.0353e-15);
    }
    fixedWalls-top
    {
        type            symmetry;
    }
    frontAndBack
    {
        type            empty;
    }
}


// ************************************************************************* //
