/*--------------------------------*- C++ -*----------------------------------*\
  =========                 |
  \\      /  F ield         | OpenFOAM: The Open Source CFD Toolbox
   \\    /   O peration     | Website:  https://openfoam.org
    \\  /    A nd           | Version:  10
     \\/     M anipulation  |
\*---------------------------------------------------------------------------*/
FoamFile
{
    format      ascii;
    class       volScalarField;
    location    "144";
    object      nut;
}
// * * * * * * * * * * * * * * * * * * * * * * * * * * * * * * * * * * * * * //

dimensions      [0 2 -1 0 0 0 0];

internalField   nonuniform List<scalar> 
200
(
1.12187e-19
1.1174e-19
1.11882e-19
1.11905e-19
1.97429e-17
1.96644e-17
1.96894e-17
1.96933e-17
4.25229e-16
4.23539e-16
4.24081e-16
4.24162e-16
3.37838e-15
3.36495e-15
3.36929e-15
3.36993e-15
1.58409e-14
1.57779e-14
1.57986e-14
1.58016e-14
5.40338e-14
5.38188e-14
5.38916e-14
5.39024e-14
1.49168e-13
1.48575e-13
1.48786e-13
1.48818e-13
3.54025e-13
3.52626e-13
3.53166e-13
3.53249e-13
7.49448e-13
7.46529e-13
7.47803e-13
7.47998e-13
1.44909e-12
1.4436e-12
1.44644e-12
1.44687e-12
2.60008e-12
2.59066e-12
2.59677e-12
2.59768e-12
4.37737e-12
4.36243e-12
4.37513e-12
4.37705e-12
6.97055e-12
6.94816e-12
6.9736e-12
6.9779e-12
1.05641e-11
1.05315e-11
1.05804e-11
1.05901e-11
1.5315e-11
1.52674e-11
1.53574e-11
1.53779e-11
2.13335e-11
2.1261e-11
2.14193e-11
2.14599e-11
2.86715e-11
2.85542e-11
2.88201e-11
2.8897e-11
3.7308e-11
3.71222e-11
3.75491e-11
3.7676e-11
4.71759e-11
4.68788e-11
4.75325e-11
4.77238e-11
5.81632e-11
5.7698e-11
5.8645e-11
5.89206e-11
7.01265e-11
6.94289e-11
7.06734e-11
7.11059e-11
8.29011e-11
8.19136e-11
8.33463e-11
8.40939e-11
9.63046e-11
9.49548e-11
9.65443e-11
9.76471e-11
1.10129e-10
1.08369e-10
1.10063e-10
1.11557e-10
1.24156e-10
1.21966e-10
1.23738e-10
1.25621e-10
1.38201e-10
1.35614e-10
1.37443e-10
1.39671e-10
1.52114e-10
1.49207e-10
1.51058e-10
1.53616e-10
1.65788e-10
1.62686e-10
1.6454e-10
1.67439e-10
1.79142e-10
1.76043e-10
1.77936e-10
1.81181e-10
1.92028e-10
1.89348e-10
1.91419e-10
1.94935e-10
2.05075e-10
2.02417e-10
2.05352e-10
2.08888e-10
2.18276e-10
2.1535e-10
2.20494e-10
2.23308e-10
2.31094e-10
2.2854e-10
2.34861e-10
2.38791e-10
2.44566e-10
2.42836e-10
2.47673e-10
2.53313e-10
2.59006e-10
2.58586e-10
2.58415e-10
2.67179e-10
2.75171e-10
2.70872e-10
2.69819e-10
2.80855e-10
2.87358e-10
2.8469e-10
2.80007e-10
2.94126e-10
2.94688e-10
2.95543e-10
2.91175e-10
3.05174e-10
3.03069e-10
3.02617e-10
3.01521e-10
3.11409e-10
3.07725e-10
3.08964e-10
3.06571e-10
3.18937e-10
3.0972e-10
3.10012e-10
3.07502e-10
3.1887e-10
3.08792e-10
3.0485e-10
3.03945e-10
3.08145e-10
2.96165e-10
2.9351e-10
2.98148e-10
2.94416e-10
2.73358e-10
2.76453e-10
2.83032e-10
2.77239e-10
2.47183e-10
2.55594e-10
2.61098e-10
2.57697e-10
2.25942e-10
2.33377e-10
2.37893e-10
2.36903e-10
2.10309e-10
2.12958e-10
2.17197e-10
2.16732e-10
1.96253e-10
1.95738e-10
1.99513e-10
1.99934e-10
1.8448e-10
1.83645e-10
1.86986e-10
1.88325e-10
1.78963e-10
1.78422e-10
1.81966e-10
1.83398e-10
)
;

boundaryField
{
    inlet
    {
        type            cyclic;
    }
    outlet
    {
        type            cyclic;
    }
    fixedWalls-bottom
    {
        type            nutkWallFunction;
        Cmu             0.09;
        kappa           0.41;
        E               9.8;
        value           uniform 0;
    }
    fixedWalls-top
    {
        type            symmetry;
    }
    frontAndBack
    {
        type            empty;
    }
}


// ************************************************************************* //
