/*--------------------------------*- C++ -*----------------------------------*\
  =========                 |
  \\      /  F ield         | OpenFOAM: The Open Source CFD Toolbox
   \\    /   O peration     | Website:  https://openfoam.org
    \\  /    A nd           | Version:  10
     \\/     M anipulation  |
\*---------------------------------------------------------------------------*/
FoamFile
{
    format      ascii;
    class       volScalarField;
    location    "144";
    object      omega;
}
// * * * * * * * * * * * * * * * * * * * * * * * * * * * * * * * * * * * * * //

dimensions      [0 0 -1 0 0 0 0];

internalField   nonuniform List<scalar> 
200
(
18187.7
18187.7
18187.7
18187.7
3084.16
3084.16
3084.16
3084.16
1023.39
1023.39
1023.39
1023.39
473.657
473.658
473.658
473.656
263.934
263.935
263.935
263.934
165.005
165.006
165.006
165.004
111.485
111.484
111.483
111.482
79.6729
79.6691
79.6663
79.6655
59.445
59.4367
59.4316
59.4317
45.9289
45.9147
45.9061
45.9072
36.5558
36.5346
36.5214
36.5236
29.8698
29.8408
29.8219
29.8252
24.9954
24.9583
24.9326
24.9368
21.3792
21.3344
21.3009
21.3057
18.6566
18.6052
18.5632
18.5679
16.5793
16.5232
16.4723
16.4756
14.9736
14.9154
14.8556
14.8555
13.7154
13.6585
13.59
13.583
12.7149
12.6636
12.5878
12.5713
11.9066
11.8634
11.7838
11.7545
11.2422
11.2075
11.1296
11.0848
10.6862
10.6576
10.5889
10.5265
10.2122
10.189
10.1327
10.053
9.80024
9.78186
9.73893
9.64408
9.4354
9.42193
9.38979
9.28401
9.10588
9.09539
9.07128
8.96007
8.80198
8.79178
8.77458
8.66104
8.51552
8.50216
8.49138
8.37752
8.23991
8.21905
8.21475
8.10148
7.97365
7.93479
7.93726
7.82641
7.68657
7.65463
7.65185
7.54751
7.38066
7.37336
7.35093
7.26218
7.07995
7.08464
7.02392
6.96958
6.76703
6.77093
6.70769
6.65767
6.44342
6.44393
6.38559
6.33081
6.11535
6.1015
6.06355
5.99163
5.79307
5.73717
5.75449
5.64621
5.44912
5.4071
5.40725
5.31667
5.10125
5.10316
5.054
5.00542
4.80234
4.77512
4.76068
4.7125
4.53948
4.50829
4.49958
4.45033
4.32024
4.28355
4.28457
4.22566
4.14377
4.1034
4.11248
4.0425
4.01642
3.96326
3.98551
3.89788
3.9497
3.8539
3.91165
3.77877
3.87706
3.77735
3.85097
3.68502
3.8144
3.71027
3.77619
3.61214
3.74899
3.64217
3.70829
3.54176
3.67625
3.56689
3.63594
3.46668
3.6013
3.48284
3.54587
3.3845
)
;

boundaryField
{
    inlet
    {
        type            cyclic;
    }
    outlet
    {
        type            cyclic;
    }
    fixedWalls-bottom
    {
        beta1           0.075;
        blended         0;
        type            omegaWallFunction;
        value           nonuniform List<scalar> 4(18187.7 18187.7 18187.7 18187.7);
    }
    fixedWalls-top
    {
        type            symmetry;
    }
    frontAndBack
    {
        type            empty;
    }
}


// ************************************************************************* //
