/*--------------------------------*- C++ -*----------------------------------*\
  =========                 |
  \\      /  F ield         | OpenFOAM: The Open Source CFD Toolbox
   \\    /   O peration     | Website:  https://openfoam.org
    \\  /    A nd           | Version:  10
     \\/     M anipulation  |
\*---------------------------------------------------------------------------*/
FoamFile
{
    format      ascii;
    class       volScalarField;
    location    "144";
    object      p;
}
// * * * * * * * * * * * * * * * * * * * * * * * * * * * * * * * * * * * * * //

dimensions      [0 2 -2 0 0 0 0];

internalField   nonuniform List<scalar> 
200
(
-1.32245e-10
8.56405e-07
4.69946e-08
-8.10549e-07
9.01979e-11
8.55052e-07
4.68637e-08
-8.09183e-07
2.88562e-10
8.53708e-07
4.66398e-08
-8.07808e-07
2.86416e-10
8.52682e-07
4.64569e-08
-8.06776e-07
4.3065e-10
8.52033e-07
4.62525e-08
-8.06083e-07
5.63129e-10
8.51667e-07
4.60441e-08
-8.05696e-07
8.56896e-10
8.51637e-07
4.57451e-08
-8.05611e-07
1.15218e-09
8.51896e-07
4.53944e-08
-8.05842e-07
1.62997e-09
8.52493e-07
4.48998e-08
-8.06382e-07
2.16918e-09
8.53368e-07
4.42968e-08
-8.07228e-07
2.9433e-09
8.54546e-07
4.34883e-08
-8.0835e-07
3.85788e-09
8.55941e-07
4.25015e-08
-8.09715e-07
5.07111e-09
8.57548e-07
4.12413e-08
-8.11266e-07
6.51751e-09
8.59241e-07
3.97192e-08
-8.12927e-07
8.33148e-09
8.60973e-07
3.78514e-08
-8.14604e-07
1.04679e-08
8.62565e-07
3.56376e-08
-8.16164e-07
1.30419e-08
8.63919e-07
3.30055e-08
-8.17464e-07
1.60324e-08
8.64793e-07
2.99372e-08
-8.18306e-07
1.95316e-08
8.6502e-07
2.63772e-08
-8.18482e-07
2.35418e-08
8.64288e-07
2.22894e-08
-8.17719e-07
2.81385e-08
8.6235e-07
1.76308e-08
-8.15736e-07
3.33484e-08
8.58833e-07
1.2344e-08
-8.12193e-07
3.92364e-08
8.53402e-07
6.39286e-09
-8.06723e-07
4.58633e-08
8.45619e-07
-3.09275e-10
-7.98922e-07
5.3291e-08
8.35074e-07
-7.79969e-09
-7.88346e-07
6.16004e-08
8.21295e-07
-1.61824e-08
-7.74558e-07
7.08768e-08
8.03808e-07
-2.55205e-08
-7.57049e-07
8.12273e-08
7.82131e-07
-3.59407e-08
-7.35371e-07
9.27715e-08
7.55764e-07
-4.7543e-08
-7.08992e-07
1.05615e-07
7.24278e-07
-6.045e-08
-6.77512e-07
1.19943e-07
6.87194e-07
-7.48301e-08
-6.4042e-07
1.35859e-07
6.44191e-07
-9.08006e-08
-5.97424e-07
1.53612e-07
5.94894e-07
-1.08596e-07
-5.48121e-07
1.73277e-07
5.39178e-07
-1.28306e-07
-4.92411e-07
1.95167e-07
4.76874e-07
-1.50229e-07
-4.301e-07
2.193e-07
4.08155e-07
-1.74399e-07
-3.61384e-07
2.46005e-07
3.3318e-07
-2.01131e-07
-2.86408e-07
2.75205e-07
2.52528e-07
-2.30366e-07
-2.05765e-07
3.07146e-07
1.66825e-07
-2.62336e-07
-1.20079e-07
3.41569e-07
7.71723e-08
-2.96801e-07
-3.04567e-08
3.785e-07
-1.52284e-08
-3.33774e-07
6.1892e-08
4.17391e-07
-1.08686e-07
-3.72725e-07
1.55281e-07
4.57855e-07
-2.01354e-07
-4.13248e-07
2.47851e-07
4.98926e-07
-2.90948e-07
-4.54399e-07
3.37332e-07
5.39704e-07
-3.74984e-07
-4.9526e-07
4.2123e-07
5.78778e-07
-4.5048e-07
-5.34429e-07
4.96581e-07
6.1423e-07
-5.13822e-07
-5.69976e-07
5.5978e-07
6.42629e-07
-5.60822e-07
-5.98456e-07
6.06661e-07
6.59386e-07
-5.89249e-07
-6.15263e-07
6.35008e-07
6.67695e-07
-6.09203e-07
-6.2358e-07
6.54937e-07
)
;

boundaryField
{
    inlet
    {
        type            cyclic;
    }
    outlet
    {
        type            cyclic;
    }
    fixedWalls-bottom
    {
        type            zeroGradient;
    }
    fixedWalls-top
    {
        type            symmetry;
    }
    frontAndBack
    {
        type            empty;
    }
}


// ************************************************************************* //
