/*--------------------------------*- C++ -*----------------------------------*\
  =========                 |
  \\      /  F ield         | OpenFOAM: The Open Source CFD Toolbox
   \\    /   O peration     | Website:  https://openfoam.org
    \\  /    A nd           | Version:  10
     \\/     M anipulation  |
\*---------------------------------------------------------------------------*/
FoamFile
{
    format      ascii;
    class       surfaceScalarField;
    location    "144";
    object      phi;
}
// * * * * * * * * * * * * * * * * * * * * * * * * * * * * * * * * * * * * * //

dimensions      [0 3 -1 0 0 0 0];

internalField   nonuniform List<scalar> 
346
(
0.000255401
8.05455e-10
0.000255403
-1.99995e-09
0.000255403
-2.06279e-10
1.90609e-09
0.000790824
1.60432e-09
0.000790829
-7.06922e-09
0.00079083
-8.50525e-10
6.846e-09
0.00136701
2.42641e-09
0.00136702
-1.47946e-08
0.00136702
-1.71684e-09
1.44466e-08
0.00198611
3.72218e-09
0.00198612
-2.46942e-08
0.00198613
-2.8614e-09
2.42595e-08
0.00265038
4.91649e-09
0.00265039
-3.63986e-08
0.00265039
-4.10747e-09
3.58884e-08
0.00336212
6.40277e-09
0.00336214
-4.93408e-08
0.00336214
-5.45833e-09
4.87802e-08
0.00412373
7.51095e-09
0.00412374
-6.30924e-08
0.00412375
-6.63068e-09
6.24887e-08
0.00493767
8.5293e-09
0.00493768
-7.70256e-08
0.00493768
-7.53132e-09
7.63959e-08
0.00580647
8.69458e-09
0.00580649
-9.07215e-08
0.00580649
-7.76991e-09
9.00753e-08
0.00673275
8.15974e-09
0.00673276
-1.03554e-07
0.00673276
-7.13398e-09
1.02898e-07
0.00771917
6.08726e-09
0.00771918
-1.15191e-07
0.00771918
-5.14404e-09
1.14535e-07
0.00876845
2.52215e-09
0.00876846
-1.25076e-07
0.00876846
-1.49289e-09
1.24421e-07
0.00988339
-3.3952e-09
0.0098834
-1.33037e-07
0.00988339
4.33632e-09
1.32396e-07
0.0110668
-1.16923e-08
0.0110668
-1.38652e-07
0.0110668
1.27062e-08
1.38019e-07
0.0123216
-2.31793e-08
0.0123216
-1.41964e-07
0.0123216
2.40987e-08
1.41354e-07
0.0136506
-3.78621e-08
0.0136506
-1.42719e-07
0.0136506
3.88412e-08
1.4212e-07
0.0150568
-5.64093e-08
0.0150568
-1.41185e-07
0.0150567
5.72907e-08
1.4062e-07
0.016543
-7.87407e-08
0.016543
-1.37294e-07
0.016543
7.96716e-08
1.36741e-07
0.0181122
-1.05289e-07
0.0181122
-1.31503e-07
0.0181122
1.06116e-07
1.30991e-07
0.0197673
-1.35815e-07
0.0197673
-1.23886e-07
0.0197673
1.36683e-07
1.23383e-07
0.0215111
-1.70447e-07
0.0215111
-1.15007e-07
0.0215111
1.71209e-07
1.14557e-07
0.0233463
-2.08769e-07
0.0233463
-1.05045e-07
0.0233463
2.09569e-07
1.04598e-07
0.0252756
-2.50575e-07
0.0252756
-9.45638e-08
0.0252756
2.51261e-07
9.41769e-08
0.0273015
-2.95293e-07
0.0273015
-8.3775e-08
0.0273015
2.96019e-07
8.33809e-08
0.0294264
-3.42428e-07
0.0294264
-7.31466e-08
0.0294264
3.4304e-07
7.28231e-08
0.0316525
-3.91266e-07
0.0316524
-6.28834e-08
0.0316524
3.91923e-07
6.25371e-08
0.0339815
-4.41117e-07
0.0339815
-5.32915e-08
0.0339815
4.41658e-07
5.30249e-08
0.0364153
-4.91182e-07
0.0364153
-4.4552e-08
0.0364152
4.91774e-07
4.42416e-08
0.038955
-5.40716e-07
0.038955
-3.68021e-08
0.0389549
5.412e-07
3.65846e-08
0.0416015
-5.88808e-07
0.0416015
-3.0195e-08
0.0416014
5.89348e-07
2.99117e-08
0.0443552
-6.34777e-07
0.0443552
-2.4749e-08
0.0443551
6.35215e-07
2.45689e-08
0.0472159
-6.77605e-07
0.0472159
-2.06053e-08
0.0472158
6.78105e-07
2.03378e-08
0.0501829
-7.16751e-07
0.0501829
-1.77352e-08
0.0501828
7.17151e-07
1.75798e-08
0.0532545
-7.51003e-07
0.0532545
-1.6251e-08
0.0532545
7.51462e-07
1.59968e-08
0.0564285
-7.79979e-07
0.0564285
-1.61449e-08
0.0564285
7.80348e-07
1.60038e-08
0.0597015
-8.0222e-07
0.0597015
-1.74429e-08
0.0597015
8.02643e-07
1.72003e-08
0.0630691
-8.17458e-07
0.0630691
-2.01542e-08
0.0630691
8.17786e-07
2.00242e-08
0.0665256
-8.23984e-07
0.0665256
-2.41506e-08
0.0665256
8.24356e-07
2.39271e-08
0.0700641
-8.216e-07
0.0700642
-2.93705e-08
0.0700642
8.21862e-07
2.92697e-08
0.073676
-8.08387e-07
0.073676
-3.54578e-08
0.073676
8.08676e-07
3.52852e-08
0.0773509
-7.84142e-07
0.0773509
-4.2153e-08
0.077351
7.84318e-07
4.20959e-08
0.0810765
-7.4698e-07
0.0810765
-4.88578e-08
0.0810766
7.47162e-07
4.87609e-08
0.0848383
-6.96643e-07
0.0848383
-5.50487e-08
0.0848384
6.96727e-07
5.50437e-08
0.0886192
-6.31502e-07
0.0886192
-5.99528e-08
0.0886193
6.31571e-07
5.99401e-08
0.0923996
-5.51262e-07
0.0923996
-6.29772e-08
0.0923996
5.51287e-07
6.29966e-08
0.0961564
-4.55125e-07
0.0961564
-6.36058e-08
0.0961565
4.55138e-07
6.36237e-08
0.0998633
-3.43845e-07
0.0998633
-6.15211e-08
0.0998634
3.43854e-07
6.15313e-08
0.10349
-2.21194e-07
0.10349
-5.43581e-08
0.10349
2.21217e-07
5.43413e-08
0.107003
-1.04595e-07
0.107003
-2.37272e-08
0.107003
1.04575e-07
2.37475e-08
0.110361
0.110361
0.110361
)
;

boundaryField
{
    inlet
    {
        type            cyclic;
        value           nonuniform List<scalar> 
50
(
-0.110361
-0.107003
-0.10349
-0.0998634
-0.0961565
-0.0923996
-0.0886193
-0.0848384
-0.0810766
-0.0773509
-0.073676
-0.0700642
-0.0665256
-0.0630691
-0.0597015
-0.0564285
-0.0532545
-0.0501828
-0.0472159
-0.0443551
-0.0416014
-0.0389549
-0.0364152
-0.0339815
-0.0316524
-0.0294264
-0.0273015
-0.0252756
-0.0233463
-0.0215111
-0.0197673
-0.0181122
-0.016543
-0.0150567
-0.0136506
-0.0123216
-0.0110668
-0.00988338
-0.00876845
-0.00771916
-0.00673275
-0.00580647
-0.00493767
-0.00412373
-0.00336212
-0.00265038
-0.00198612
-0.00136701
-0.000790825
-0.000255401
)
;
    }
    outlet
    {
        type            cyclic;
        value           nonuniform List<scalar> 
50
(
0.110361
0.107003
0.10349
0.0998634
0.0961565
0.0923996
0.0886193
0.0848384
0.0810766
0.0773509
0.073676
0.0700642
0.0665256
0.0630691
0.0597015
0.0564285
0.0532545
0.0501828
0.0472159
0.0443551
0.0416014
0.0389549
0.0364152
0.0339815
0.0316524
0.0294264
0.0273015
0.0252756
0.0233463
0.0215111
0.0197673
0.0181122
0.016543
0.0150567
0.0136506
0.0123216
0.0110668
0.00988338
0.00876845
0.00771916
0.00673275
0.00580647
0.00493767
0.00412373
0.00336212
0.00265038
0.00198612
0.00136701
0.000790825
0.000255401
)
;
    }
    fixedWalls-bottom
    {
        type            calculated;
        value           uniform 0;
    }
    fixedWalls-top
    {
        type            symmetry;
        value           uniform 0;
    }
    frontAndBack
    {
        type            empty;
        value           nonuniform List<scalar> 0();
    }
}


// ************************************************************************* //
