/*--------------------------------*- C++ -*----------------------------------*\
  =========                 |
  \\      /  F ield         | OpenFOAM: The Open Source CFD Toolbox
   \\    /   O peration     | Website:  https://openfoam.org
    \\  /    A nd           | Version:  10
     \\/     M anipulation  |
\*---------------------------------------------------------------------------*/
FoamFile
{
    format      ascii;
    class       volSymmTensorField;
    location    "144";
    object      R;
}
// * * * * * * * * * * * * * * * * * * * * * * * * * * * * * * * * * * * * * //

dimensions      [0 2 -2 0 0 0 0];

internalField   nonuniform List<symmTensor> 
200
(
(1.36029e-15 -3.36034e-19 -0 1.36029e-15 -0 1.36029e-15)
(1.35486e-15 -3.34696e-19 -0 1.35486e-15 -0 1.35486e-15)
(1.35659e-15 -3.35125e-19 -0 1.35659e-15 -0 1.35659e-15)
(1.35686e-15 -3.3519e-19 -0 1.35686e-15 -0 1.35686e-15)
(4.05936e-14 -5.8581e-17 -0 4.05936e-14 -0 4.05936e-14)
(4.0432e-14 -5.83481e-17 -0 4.0432e-14 -0 4.0432e-14)
(4.04836e-14 -5.84229e-17 -0 4.04836e-14 -0 4.04836e-14)
(4.04915e-14 -5.8434e-17 -0 4.04915e-14 -0 4.04915e-14)
(2.90116e-13 -1.24942e-15 -0 2.90116e-13 -0 2.90116e-13)
(2.88964e-13 -1.24446e-15 -0 2.88964e-13 -0 2.88964e-13)
(2.89333e-13 -1.24606e-15 -0 2.89333e-13 -0 2.89333e-13)
(2.89388e-13 -1.24629e-15 -0 2.89388e-13 -0 2.89388e-13)
(1.06679e-12 -9.82556e-15 -0 1.06679e-12 -0 1.06679e-12)
(1.06256e-12 -9.78652e-15 -0 1.06256e-12 -0 1.06256e-12)
(1.06393e-12 -9.7992e-15 -0 1.06393e-12 -0 1.06393e-12)
(1.06413e-12 -9.801e-15 -0 1.06413e-12 -0 1.06413e-12)
(2.78729e-12 -4.55835e-14 -0 2.78729e-12 -0 2.78729e-12)
(2.77622e-12 -4.54022e-14 -0 2.77622e-12 -0 2.77622e-12)
(2.77987e-12 -4.5462e-14 -0 2.77987e-12 -0 2.77987e-12)
(2.78038e-12 -4.54705e-14 -0 2.78038e-12 -0 2.78038e-12)
(5.94391e-12 -1.53774e-13 -0 5.94391e-12 -0 5.94391e-12)
(5.92029e-12 -1.53162e-13 -0 5.92029e-12 -0 5.92029e-12)
(5.92829e-12 -1.53369e-13 -0 5.92829e-12 -0 5.92829e-12)
(5.92942e-12 -1.53399e-13 -0 5.92942e-12 -0 5.92942e-12)
(1.10867e-11 -4.19642e-13 -0 1.10867e-11 -0 1.10867e-11)
(1.10425e-11 -4.17973e-13 -0 1.10425e-11 -0 1.10425e-11)
(1.10581e-11 -4.18568e-13 -0 1.10581e-11 -0 1.10581e-11)
(1.10604e-11 -4.18657e-13 -0 1.10604e-11 -0 1.10604e-11)
(1.88041e-11 -9.84039e-13 -0 1.88041e-11 -0 1.88041e-11)
(1.87289e-11 -9.80148e-13 -0 1.87289e-11 -0 1.87289e-11)
(1.8757e-11 -9.8165e-13 -0 1.8757e-11 -0 1.8757e-11)
(1.87612e-11 -9.8188e-13 -0 1.87612e-11 -0 1.87612e-11)
(2.97006e-11 -2.05719e-12 -0 2.97006e-11 -0 2.97006e-11)
(2.95808e-11 -2.04917e-12 -0 2.95808e-11 -0 2.95808e-11)
(2.96287e-11 -2.05267e-12 -0 2.96287e-11 -0 2.96287e-11)
(2.96365e-11 -2.0532e-12 -0 2.96365e-11 -0 2.96365e-11)
(4.43699e-11 -3.92598e-12 -0 4.43699e-11 -0 4.43699e-11)
(4.41882e-11 -3.91109e-12 -0 4.41883e-11 -0 4.41883e-11)
(4.4267e-11 -3.9188e-12 -0 4.4267e-11 -0 4.4267e-11)
(4.42812e-11 -3.91995e-12 -0 4.42812e-11 -0 4.42812e-11)
(6.33653e-11 -6.94889e-12 -0 6.33653e-11 -0 6.33653e-11)
(6.30991e-11 -6.9237e-12 -0 6.30991e-11 -0 6.30991e-11)
(6.32252e-11 -6.94002e-12 -0 6.32252e-11 -0 6.32252e-11)
(6.3251e-11 -6.94243e-12 -0 6.3251e-11 -0 6.3251e-11)
(8.71676e-11 -1.15335e-11 -0 8.71676e-11 -0 8.71676e-11)
(8.67856e-11 -1.14941e-11 -0 8.67857e-11 -0 8.67857e-11)
(8.69831e-11 -1.15275e-11 -0 8.69831e-11 -0 8.69831e-11)
(8.70309e-11 -1.15325e-11 -0 8.70309e-11 -0 8.70309e-11)
(1.16155e-10 -1.8095e-11 -0 1.16155e-10 -0 1.16155e-10)
(1.1561e-10 -1.80368e-11 -0 1.1561e-10 -0 1.1561e-10)
(1.15913e-10 -1.81028e-11 -0 1.15913e-10 -0 1.15913e-10)
(1.16005e-10 -1.81139e-11 -0 1.16004e-10 -0 1.16005e-10)
(1.50568e-10 -2.70011e-11 -0 1.50568e-10 -0 1.50568e-10)
(1.49789e-10 -2.69177e-11 -0 1.49789e-10 -0 1.49789e-10)
(1.50249e-10 -2.70426e-11 -0 1.50249e-10 -0 1.50249e-10)
(1.5042e-10 -2.70673e-11 -0 1.5042e-10 -0 1.5042e-10)
(1.90484e-10 -3.85139e-11 -0 1.90484e-10 -0 1.90484e-10)
(1.89368e-10 -3.83939e-11 -0 1.89368e-10 -0 1.89368e-10)
(1.90056e-10 -3.86203e-11 -0 1.90056e-10 -0 1.90056e-10)
(1.90357e-10 -3.86717e-11 -0 1.90356e-10 -0 1.90357e-10)
(2.35795e-10 -5.2746e-11 -0 2.35796e-10 -0 2.35796e-10)
(2.34199e-10 -5.25667e-11 -0 2.34199e-10 -0 2.34199e-10)
(2.35217e-10 -5.29579e-11 -0 2.35217e-10 -0 2.35217e-10)
(2.35711e-10 -5.30584e-11 -0 2.35711e-10 -0 2.35711e-10)
(2.8621e-10 -6.9641e-11 -0 2.8621e-10 -0 2.8621e-10)
(2.83931e-10 -6.93561e-11 -0 2.83931e-10 -0 2.83931e-10)
(2.85425e-10 -7.00016e-11 -0 2.85425e-10 -0 2.85425e-10)
(2.86186e-10 -7.01883e-11 -0 2.86186e-10 -0 2.86186e-10)
(3.4113e-10 -8.89485e-11 -0 3.41131e-10 -0 3.4113e-10)
(3.38023e-10 -8.85056e-11 -0 3.38022e-10 -0 3.38022e-10)
(3.40196e-10 -8.95231e-11 -0 3.40196e-10 -0 3.40196e-10)
(3.41169e-10 -8.98255e-11 -0 3.41169e-10 -0 3.41169e-10)
(3.99892e-10 -1.10304e-10 -0 3.99893e-10 -0 3.99892e-10)
(3.95769e-10 -1.09609e-10 -0 3.95769e-10 -0 3.95769e-10)
(3.98886e-10 -1.11137e-10 -0 3.98886e-10 -0 3.98886e-10)
(3.99966e-10 -1.11584e-10 -0 3.99966e-10 -0 3.99966e-10)
(4.61683e-10 -1.33241e-10 -0 4.61683e-10 -0 4.61683e-10)
(4.56328e-10 -1.32176e-10 -0 4.56328e-10 -0 4.56328e-10)
(4.60709e-10 -1.34345e-10 -0 4.60708e-10 -0 4.60709e-10)
(4.61722e-10 -1.34976e-10 -0 4.61722e-10 -0 4.61722e-10)
(5.25584e-10 -1.57235e-10 -0 5.25585e-10 -0 5.25584e-10)
(5.1875e-10 -1.55671e-10 -0 5.1875e-10 -0 5.1875e-10)
(5.24378e-10 -1.58461e-10 -0 5.24377e-10 -0 5.24378e-10)
(5.25462e-10 -1.5943e-10 -0 5.25462e-10 -0 5.25462e-10)
(5.90598e-10 -1.81731e-10 -0 5.90599e-10 -0 5.90599e-10)
(5.82003e-10 -1.79567e-10 -0 5.82002e-10 -0 5.82003e-10)
(5.88363e-10 -1.82707e-10 -0 5.88362e-10 -0 5.88363e-10)
(5.90142e-10 -1.84345e-10 -0 5.90142e-10 -0 5.90142e-10)
(6.55651e-10 -2.06162e-10 -0 6.55652e-10 -0 6.55651e-10)
(6.44999e-10 -2.03273e-10 -0 6.44999e-10 -0 6.44999e-10)
(6.52169e-10 -2.06675e-10 -0 6.52168e-10 -0 6.52169e-10)
(6.54431e-10 -2.09035e-10 -0 6.54431e-10 -0 6.54431e-10)
(7.19526e-10 -2.29935e-10 -0 7.19527e-10 -0 7.19526e-10)
(7.06699e-10 -2.2626e-10 -0 7.06698e-10 -0 7.06699e-10)
(7.14596e-10 -2.29797e-10 -0 7.14595e-10 -0 7.14596e-10)
(7.17245e-10 -2.32917e-10 -0 7.17245e-10 -0 7.17245e-10)
(7.80975e-10 -2.52477e-10 -0 7.80976e-10 -0 7.80976e-10)
(7.66106e-10 -2.48024e-10 -0 7.66106e-10 -0 7.66106e-10)
(7.74581e-10 -2.51626e-10 -0 7.7458e-10 -0 7.7458e-10)
(7.77508e-10 -2.55454e-10 -0 7.77508e-10 -0 7.77508e-10)
(8.38958e-10 -2.73319e-10 -0 8.38959e-10 -0 8.38959e-10)
(8.22311e-10 -2.68205e-10 -0 8.2231e-10 -0 8.22311e-10)
(8.31187e-10 -2.7182e-10 -0 8.31186e-10 -0 8.31186e-10)
(8.34308e-10 -2.76227e-10 -0 8.34308e-10 -0 8.34308e-10)
(8.92602e-10 -2.92104e-10 -0 8.92603e-10 -0 8.92602e-10)
(8.74528e-10 -2.86522e-10 -0 8.74528e-10 -0 8.74528e-10)
(8.83645e-10 -2.90076e-10 -0 8.83643e-10 -0 8.83644e-10)
(8.86983e-10 -2.9499e-10 -0 8.86984e-10 -0 8.86984e-10)
(9.41179e-10 -3.08582e-10 -0 9.41181e-10 -0 9.4118e-10)
(9.22122e-10 -3.02809e-10 -0 9.22121e-10 -0 9.22121e-10)
(9.31448e-10 -3.0626e-10 -0 9.31447e-10 -0 9.31448e-10)
(9.35149e-10 -3.11656e-10 -0 9.35149e-10 -0 9.35149e-10)
(9.84077e-10 -3.22576e-10 -0 9.84078e-10 -0 9.84077e-10)
(9.64602e-10 -3.16996e-10 -0 9.64602e-10 -0 9.64602e-10)
(9.74466e-10 -3.20404e-10 -0 9.74464e-10 -0 9.74465e-10)
(9.78554e-10 -3.26248e-10 -0 9.78554e-10 -0 9.78554e-10)
(1.02078e-09 -3.33812e-10 -0 1.02078e-09 -0 1.02078e-09)
(1.00162e-09 -3.29154e-10 -0 1.00162e-09 -0 1.00162e-09)
(1.0129e-09 -3.32755e-10 -0 1.0129e-09 -0 1.0129e-09)
(1.01709e-09 -3.38867e-10 -0 1.01709e-09 -0 1.01709e-09)
(1.05088e-09 -3.43358e-10 -0 1.05088e-09 -0 1.05088e-09)
(1.03295e-09 -3.38908e-10 -0 1.03295e-09 -0 1.03295e-09)
(1.04755e-09 -3.43822e-10 -0 1.04755e-09 -0 1.04755e-09)
(1.05106e-09 -3.49744e-10 -0 1.05106e-09 -0 1.05106e-09)
(1.07401e-09 -3.5109e-10 -0 1.07402e-09 -0 1.07401e-09)
(1.05857e-09 -3.46384e-10 -0 1.05857e-09 -0 1.05857e-09)
(1.08056e-09 -3.54658e-10 -0 1.08055e-09 -0 1.08056e-09)
(1.08113e-09 -3.59186e-10 -0 1.08113e-09 -0 1.08113e-09)
(1.09075e-09 -3.56071e-10 -0 1.09076e-09 -0 1.09075e-09)
(1.07941e-09 -3.52136e-10 -0 1.07941e-09 -0 1.07941e-09)
(1.09976e-09 -3.61876e-10 -0 1.09976e-09 -0 1.09976e-09)
(1.10951e-09 -3.67933e-10 -0 1.10951e-09 -0 1.10951e-09)
(1.10332e-09 -3.5982e-10 -0 1.10332e-09 -0 1.10332e-09)
(1.09615e-09 -3.57276e-10 -0 1.09615e-09 -0 1.09615e-09)
(1.10754e-09 -3.64392e-10 -0 1.10754e-09 -0 1.10754e-09)
(1.12432e-09 -3.72693e-10 -0 1.12432e-09 -0 1.12432e-09)
(1.11259e-09 -3.62552e-10 -0 1.11259e-09 -0 1.11259e-09)
(1.11087e-09 -3.61964e-10 -0 1.11087e-09 -0 1.11087e-09)
(1.10009e-09 -3.61725e-10 -0 1.10009e-09 -0 1.10009e-09)
(1.12764e-09 -3.73995e-10 -0 1.12764e-09 -0 1.12764e-09)
(1.12184e-09 -3.64962e-10 -0 1.12185e-09 -0 1.12185e-09)
(1.10182e-09 -3.5926e-10 -0 1.10182e-09 -0 1.10182e-09)
(1.09071e-09 -3.57864e-10 -0 1.09071e-09 -0 1.09071e-09)
(1.12185e-09 -3.72503e-10 -0 1.12185e-09 -0 1.12185e-09)
(1.10979e-09 -3.59424e-10 -0 1.10979e-09 -0 1.10979e-09)
(1.08888e-09 -3.56087e-10 -0 1.08888e-09 -0 1.08888e-09)
(1.0742e-09 -3.5023e-10 -0 1.0742e-09 -0 1.0742e-09)
(1.10713e-09 -3.67893e-10 -0 1.10713e-09 -0 1.10713e-09)
(1.07053e-09 -3.45716e-10 -0 1.07053e-09 -0 1.07053e-09)
(1.06535e-09 -3.46719e-10 -0 1.06535e-09 -0 1.06535e-09)
(1.04964e-09 -3.41595e-10 -0 1.04964e-09 -0 1.04964e-09)
(1.08167e-09 -3.58021e-10 -0 1.08167e-09 -0 1.08167e-09)
(1.03068e-09 -3.31363e-10 -0 1.03068e-09 -0 1.03068e-09)
(1.02953e-09 -3.30869e-10 -0 1.02953e-09 -0 1.02953e-09)
(1.01592e-09 -3.29672e-10 -0 1.01592e-09 -0 1.01592e-09)
(1.03916e-09 -3.40485e-10 -0 1.03915e-09 -0 1.03915e-09)
(9.852e-10 -3.11211e-10 -0 9.852e-10 -0 9.852e-10)
(9.83561e-10 -3.12464e-10 -0 9.83561e-10 -0 9.83561e-10)
(9.72989e-10 -3.10044e-10 -0 9.7299e-10 -0 9.7299e-10)
(1.002e-09 -3.22554e-10 -0 1.00199e-09 -0 1.00199e-09)
(9.37314e-10 -2.87111e-10 -0 9.37313e-10 -0 9.37314e-10)
(9.3175e-10 -2.87381e-10 -0 9.3175e-10 -0 9.3175e-10)
(9.22419e-10 -2.85054e-10 -0 9.2242e-10 -0 9.22419e-10)
(9.46051e-10 -2.95596e-10 -0 9.4605e-10 -0 9.46051e-10)
(8.89372e-10 -2.5948e-10 -0 8.8937e-10 -0 8.89371e-10)
(8.70559e-10 -2.56167e-10 -0 8.70559e-10 -0 8.70559e-10)
(8.6818e-10 -2.55407e-10 -0 8.68182e-10 -0 8.68181e-10)
(8.68079e-10 -2.5894e-10 -0 8.68078e-10 -0 8.68078e-10)
(8.18161e-10 -2.22473e-10 -0 8.18159e-10 -0 8.1816e-10)
(8.02926e-10 -2.20478e-10 -0 8.02927e-10 -0 8.02926e-10)
(8.17418e-10 -2.23963e-10 -0 8.1742e-10 -0 8.17419e-10)
(7.9345e-10 -2.21161e-10 -0 7.9345e-10 -0 7.9345e-10)
(7.31949e-10 -1.80292e-10 -0 7.31947e-10 -0 7.31948e-10)
(7.30438e-10 -1.82332e-10 -0 7.30438e-10 -0 7.30438e-10)
(7.52015e-10 -1.86671e-10 -0 7.52018e-10 -0 7.52017e-10)
(7.20429e-10 -1.82853e-10 -0 7.20429e-10 -0 7.20429e-10)
(6.50866e-10 -1.39738e-10 -0 6.50864e-10 -0 6.50865e-10)
(6.56689e-10 -1.44493e-10 -0 6.56689e-10 -0 6.56689e-10)
(6.80882e-10 -1.47605e-10 -0 6.80885e-10 -0 6.80883e-10)
(6.49186e-10 -1.45685e-10 -0 6.49186e-10 -0 6.49186e-10)
(5.83995e-10 -1.05842e-10 -0 5.83992e-10 -0 5.83994e-10)
(5.87698e-10 -1.09324e-10 -0 5.87698e-10 -0 5.87698e-10)
(6.10744e-10 -1.1144e-10 -0 6.10747e-10 -0 6.10746e-10)
(5.81993e-10 -1.10978e-10 -0 5.81993e-10 -0 5.81993e-10)
(5.34801e-10 -7.75678e-11 -0 5.34799e-10 -0 5.348e-10)
(5.26756e-10 -7.85442e-11 -0 5.26756e-10 -0 5.26756e-10)
(5.46784e-10 -8.0108e-11 -0 5.46787e-10 -0 5.46786e-10)
(5.21911e-10 -7.99378e-11 -0 5.21911e-10 -0 5.21911e-10)
(4.90502e-10 -5.22779e-11 -0 4.90499e-10 -0 4.90501e-10)
(4.75274e-10 -5.21391e-11 -0 4.75273e-10 -0 4.75274e-10)
(4.93234e-10 -5.31443e-11 -0 4.93237e-10 -0 4.93235e-10)
(4.72078e-10 -5.32565e-11 -0 4.72078e-10 -0 4.72078e-10)
(4.52131e-10 -2.96944e-11 -0 4.52129e-10 -0 4.5213e-10)
(4.36696e-10 -2.956e-11 -0 4.36695e-10 -0 4.36696e-10)
(4.53245e-10 -3.00964e-11 -0 4.53248e-10 -0 4.53246e-10)
(4.35241e-10 -3.03113e-11 -0 4.35242e-10 -0 4.35242e-10)
(4.29668e-10 -9.61836e-12 -0 4.29666e-10 -0 4.29667e-10)
(4.14276e-10 -9.59014e-12 -0 4.14276e-10 -0 4.14276e-10)
(4.30152e-10 -9.78003e-12 -0 4.30154e-10 -0 4.30153e-10)
(4.13808e-10 -9.85651e-12 -0 4.13809e-10 -0 4.13808e-10)
)
;

boundaryField
{
    inlet
    {
        type            cyclic;
    }
    outlet
    {
        type            cyclic;
    }
    fixedWalls-bottom
    {
        type            kqRWallFunction;
        value           nonuniform List<symmTensor> 4((1.36029e-15 -0 -0 1.36029e-15 -0 1.36029e-15) (1.35486e-15 -0 -0 1.35486e-15 -0 1.35486e-15) (1.35659e-15 -0 -0 1.35659e-15 -0 1.35659e-15) (1.35686e-15 -0 -0 1.35686e-15 -0 1.35686e-15));
    }
    fixedWalls-top
    {
        type            symmetry;
    }
    frontAndBack
    {
        type            empty;
    }
}


// ************************************************************************* //
