/*--------------------------------*- C++ -*----------------------------------*\
  =========                 |
  \\      /  F ield         | OpenFOAM: The Open Source CFD Toolbox
   \\    /   O peration     | Website:  https://openfoam.org
    \\  /    A nd           | Version:  10
     \\/     M anipulation  |
\*---------------------------------------------------------------------------*/
FoamFile
{
    format      ascii;
    class       volVectorField;
    location    "144";
    object      U;
}
// * * * * * * * * * * * * * * * * * * * * * * * * * * * * * * * * * * * * * //

dimensions      [0 1 -1 0 0 0 0];

internalField   nonuniform List<vector> 
200
(
(0.0138612 2.9255e-10 0)
(0.0138613 -4.72839e-10 0)
(0.0138614 -5.09141e-11 0)
(0.0138613 4.14832e-10 0)
(0.0417228 1.25632e-09 0)
(0.0417229 -3.98184e-09 0)
(0.0417232 -4.58355e-10 0)
(0.0417229 3.83692e-09 0)
(0.0701096 1.95534e-09 0)
(0.0701097 -1.03817e-08 0)
(0.0701103 -1.21639e-09 0)
(0.0701098 1.00903e-08 0)
(0.0990202 3.07342e-09 0)
(0.0990203 -1.92958e-08 0)
(0.0990211 -2.23242e-09 0)
(0.0990204 1.89035e-08 0)
(0.128452 4.3257e-09 0)
(0.128452 -3.02443e-08 0)
(0.128453 -3.45977e-09 0)
(0.128452 2.97686e-08 0)
(0.158401 5.67731e-09 0)
(0.158402 -4.27097e-08 0)
(0.158403 -4.79468e-09 0)
(0.158402 4.21696e-08 0)
(0.188864 7.01422e-09 0)
(0.188864 -5.61912e-08 0)
(0.188865 -6.10245e-09 0)
(0.188864 5.56043e-08 0)
(0.219833 8.12521e-09 0)
(0.219834 -7.01661e-08 0)
(0.219835 -7.19473e-09 0)
(0.219834 6.95444e-08 0)
(0.251303 8.7917e-09 0)
(0.251303 -8.4104e-08 0)
(0.251304 -7.83402e-09 0)
(0.251303 8.34619e-08 0)
(0.283264 8.68251e-09 0)
(0.283263 -9.74821e-08 0)
(0.283265 -7.71357e-09 0)
(0.283263 9.68273e-08 0)
(0.315705 7.47442e-09 0)
(0.315705 -1.09813e-07 0)
(0.315706 -6.49002e-09 0)
(0.315705 1.09154e-07 0)
(0.348616 4.74423e-09 0)
(0.348616 -1.20652e-07 0)
(0.348617 -3.76059e-09 0)
(0.348615 1.19993e-07 0)
(0.381982 1.03054e-10 0)
(0.381982 -1.29626e-07 0)
(0.381983 8.84401e-10 0)
(0.381982 1.28976e-07 0)
(0.415789 -6.91968e-09 0)
(0.415788 -1.36442e-07 0)
(0.415789 7.89635e-09 0)
(0.415788 1.35803e-07 0)
(0.450018 -1.67266e-08 0)
(0.450017 -1.40904e-07 0)
(0.450018 1.76961e-08 0)
(0.450016 1.40281e-07 0)
(0.48465 -2.97518e-08 0)
(0.484649 -1.42912e-07 0)
(0.48465 3.07008e-08 0)
(0.484648 1.42305e-07 0)
(0.519662 -4.63176e-08 0)
(0.519662 -1.42469e-07 0)
(0.519662 4.72506e-08 0)
(0.51966 1.41885e-07 0)
(0.555031 -6.67422e-08 0)
(0.55503 -1.39684e-07 0)
(0.55503 6.76478e-08 0)
(0.555029 1.39124e-07 0)
(0.590728 -9.11865e-08 0)
(0.590728 -1.34749e-07 0)
(0.590728 9.20676e-08 0)
(0.590726 1.34215e-07 0)
(0.626724 -1.19767e-07 0)
(0.626724 -1.27942e-07 0)
(0.626724 1.20613e-07 0)
(0.626722 1.27435e-07 0)
(0.662986 -1.52412e-07 0)
(0.662986 -1.19581e-07 0)
(0.662985 1.53228e-07 0)
(0.662983 1.19105e-07 0)
(0.699476 -1.88993e-07 0)
(0.699476 -1.10052e-07 0)
(0.699476 1.89772e-07 0)
(0.699474 1.09604e-07 0)
(0.736156 -2.29183e-07 0)
(0.736155 -9.97209e-08 0)
(0.736155 2.29925e-07 0)
(0.736153 9.93043e-08 0)
(0.772979 -2.72598e-07 0)
(0.772979 -8.89923e-08 0)
(0.772979 2.733e-07 0)
(0.772977 8.86027e-08 0)
(0.8099 -3.18694e-07 0)
(0.8099 -7.81977e-08 0)
(0.8099 3.1936e-07 0)
(0.809897 7.78391e-08 0)
(0.846866 -3.66864e-07 0)
(0.846865 -6.76881e-08 0)
(0.846865 3.67492e-07 0)
(0.846863 6.7354e-08 0)
(0.883818 -4.164e-07 0)
(0.883818 -5.77074e-08 0)
(0.883818 4.16995e-07 0)
(0.883816 5.74005e-08 0)
(0.920697 -4.6655e-07 0)
(0.920697 -4.85119e-08 0)
(0.920697 4.6711e-07 0)
(0.920695 4.82232e-08 0)
(0.957435 -5.16546e-07 0)
(0.957435 -4.0245e-08 0)
(0.957434 5.17078e-07 0)
(0.957432 3.9979e-08 0)
(0.993958 -5.65545e-07 0)
(0.993958 -3.30651e-08 0)
(0.993957 5.66049e-07 0)
(0.993956 3.2813e-08 0)
(1.03019 -6.12763e-07 0)
(1.03019 -2.70418e-08 0)
(1.03019 6.13248e-07 0)
(1.03019 2.68065e-08 0)
(1.06604 -6.5734e-07 0)
(1.06604 -2.22674e-08 0)
(1.06604 6.57804e-07 0)
(1.06604 2.2041e-08 0)
(1.10142 -6.98512e-07 0)
(1.10142 -1.87862e-08 0)
(1.10142 6.9896e-07 0)
(1.10142 1.85709e-08 0)
(1.13623 -7.35389e-07 0)
(1.13623 -1.66552e-08 0)
(1.13623 7.35818e-07 0)
(1.13623 1.64485e-08 0)
(1.17037 -7.6719e-07 0)
(1.17037 -1.59213e-08 0)
(1.17037 7.67608e-07 0)
(1.17037 1.57221e-08 0)
(1.20371 -7.92988e-07 0)
(1.20371 -1.66077e-08 0)
(1.20371 7.93388e-07 0)
(1.20371 1.64179e-08 0)
(1.23614 -8.11916e-07 0)
(1.23614 -1.87376e-08 0)
(1.23614 8.123e-07 0)
(1.23614 1.8555e-08 0)
(1.26751 -8.22988e-07 0)
(1.26751 -2.22579e-08 0)
(1.26751 8.23346e-07 0)
(1.26751 2.20889e-08 0)
(1.29769 -8.25226e-07 0)
(1.2977 -2.70847e-08 0)
(1.2977 8.25554e-07 0)
(1.2977 2.69316e-08 0)
(1.32653 -8.17585e-07 0)
(1.32653 -3.30017e-08 0)
(1.32653 8.1787e-07 0)
(1.32653 3.28772e-08 0)
(1.35384 -7.98958e-07 0)
(1.35384 -3.97141e-08 0)
(1.35384 7.99202e-07 0)
(1.35384 3.96109e-08 0)
(1.37947 -7.68336e-07 0)
(1.37947 -4.67552e-08 0)
(1.37947 7.68523e-07 0)
(1.37947 4.66916e-08 0)
(1.4032 -7.2461e-07 0)
(1.4032 -5.35669e-08 0)
(1.40321 7.24753e-07 0)
(1.40321 5.3528e-08 0)
(1.42485 -6.66914e-07 0)
(1.42485 -5.94634e-08 0)
(1.42485 6.67001e-07 0)
(1.42486 5.94701e-08 0)
(1.44419 -5.94159e-07 0)
(1.44419 -6.3854e-08 0)
(1.44419 5.94224e-07 0)
(1.44419 6.38747e-08 0)
(1.46099 -5.0544e-07 0)
(1.46099 -6.62517e-08 0)
(1.46099 5.0548e-07 0)
(1.46099 6.62934e-08 0)
(1.47498 -3.99881e-07 0)
(1.47498 -6.59728e-08 0)
(1.47498 3.99908e-07 0)
(1.47499 6.60034e-08 0)
(1.48591 -2.80357e-07 0)
(1.48591 -5.96478e-08 0)
(1.48591 2.80401e-07 0)
(1.48592 5.96769e-08 0)
(1.49349 -1.60522e-07 0)
(1.49349 -3.78773e-08 0)
(1.49349 1.60268e-07 0)
(1.49349 3.76082e-08 0)
(1.4974 -5.45199e-08 0)
(1.49739 -9.60627e-09 0)
(1.49739 5.47658e-08 0)
(1.4974 9.89353e-09 0)
)
;

boundaryField
{
    inlet
    {
        type            cyclic;
    }
    outlet
    {
        type            cyclic;
    }
    fixedWalls-bottom
    {
        type            noSlip;
    }
    fixedWalls-top
    {
        type            symmetry;
    }
    frontAndBack
    {
        type            empty;
    }
}


// ************************************************************************* //
