y,U_x,U_y,U_z
0,0,0,0
0.00502513,0.0320524,-4.03616e-10,0
0.0100503,0.0640172,-1.02604e-09,0
0.0150754,0.095544,-2.74251e-09,0
0.0201005,0.126976,-4.98544e-09,0
0.0251256,0.158166,-8.57733e-09,0
0.0301508,0.189201,-1.27148e-08,0
0.0351759,0.219936,-1.79083e-08,0
0.040201,0.250413,-2.31501e-08,0
0.0452261,0.280397,-2.84836e-08,0
0.0502513,0.310005,-3.3129e-08,0
0.0552764,0.338704,-3.61054e-08,0
0.0603015,0.367052,-3.8521e-08,0
0.0653266,0.393808,-3.8382e-08,0
0.0703518,0.420545,-3.82545e-08,0
0.0753769,0.444831,-3.96548e-08,0
0.080402,0.469116,-4.10551e-08,0
0.0854271,0.491337,-4.38841e-08,0
0.0904523,0.512951,-4.71337e-08,0
0.0954774,0.533374,-5.0885e-08,0
0.100503,0.552474,-5.51941e-08,0
0.105528,0.57134,-5.94418e-08,0
0.110553,0.588275,-6.31864e-08,0
0.115578,0.60521,-6.6931e-08,0
0.120603,0.620886,-6.79067e-08,0
0.125628,0.63596,-6.75541e-08,0
0.130653,0.650752,-6.67622e-08,0
0.135678,0.664203,-6.38733e-08,0
0.140704,0.677654,-6.09843e-08,0
0.145729,0.690266,-5.72179e-08,0
0.150754,0.702315,-5.28633e-08,0
0.155779,0.714365,-4.85086e-08,0
0.160804,0.72527,-4.27912e-08,0
0.165829,0.736116,-3.70026e-08,0
0.170854,0.746729,-3.08564e-08,0
0.175879,0.756543,-2.34853e-08,0
0.180905,0.766357,-1.61142e-08,0
0.18593,0.775798,-8.33623e-09,0
0.190955,0.78473,-4.4196e-12,0
0.19598,0.793662,8.32739e-09,0
0.201005,0.802187,1.66662e-08,0
0.20603,0.810365,2.50109e-08,0
0.211055,0.818543,3.33556e-08,0
0.21608,0.826349,4.14552e-08,0
0.221106,0.83388,4.93738e-08,0
0.226131,0.84141,5.72923e-08,0
0.231156,0.848647,6.5475e-08,0
0.236181,0.855618,7.38976e-08,0
0.241206,0.862588,8.23201e-08,0
0.246231,0.86937,9.21411e-08,0
0.251256,0.875853,1.04187e-07,0
0.256281,0.882335,1.16234e-07,0
0.261307,0.88875,1.29451e-07,0
0.266332,0.894803,1.48928e-07,0
0.271357,0.900857,1.68404e-07,0
0.276382,0.90691,1.87881e-07,0
0.281407,0.912646,2.1315e-07,0
0.286432,0.918319,2.39551e-07,0
0.291457,0.923992,2.65952e-07,0
0.296482,0.929523,2.89843e-07,0
0.301508,0.934857,3.10273e-07,0
0.306533,0.94019,3.30703e-07,0
0.311558,0.945524,3.51133e-07,0
0.316583,0.950582,3.48389e-07,0
0.321608,0.955612,3.43238e-07,0
0.326633,0.960641,3.38087e-07,0
0.331658,0.965593,3.28963e-07,0
0.336683,0.970354,3.10146e-07,0
0.341709,0.975115,2.91329e-07,0
0.346734,0.979877,2.72512e-07,0
0.351759,0.984505,2.52055e-07,0
0.356784,0.989034,2.30369e-07,0
0.361809,0.993563,2.08682e-07,0
0.366834,0.998092,1.86996e-07,0
0.371859,1.00247,1.73741e-07,0
0.376884,1.00679,1.63354e-07,0
0.38191,1.01111,1.52966e-07,0
0.386935,1.01543,1.42579e-07,0
0.39196,1.0196,1.51219e-07,0
0.396985,1.02373,1.643e-07,0
0.40201,1.02786,1.77381e-07,0
0.407035,1.03199,1.90463e-07,0
0.41206,1.03598,2.03942e-07,0
0.417085,1.03993,2.17544e-07,0
0.422111,1.04388,2.31147e-07,0
0.427136,1.04783,2.4475e-07,0
0.432161,1.05167,2.57826e-07,0
0.437186,1.05545,2.70546e-07,0
0.442211,1.05922,2.83267e-07,0
0.447236,1.063,2.95988e-07,0
0.452261,1.06672,3.06126e-07,0
0.457286,1.07034,3.1062e-07,0
0.462312,1.07395,3.15113e-07,0
0.467337,1.07756,3.19607e-07,0
0.472362,1.08117,3.24101e-07,0
0.477387,1.08464,3.23051e-07,0
0.482412,1.08809,3.21433e-07,0
0.487437,1.09154,3.19814e-07,0
0.492462,1.09499,3.18196e-07,0
0.497487,1.09839,3.17099e-07,0
0.502513,1.10169,3.16878e-07,0
0.507538,1.10499,3.16656e-07,0
0.512563,1.10829,3.16435e-07,0
0.517588,1.11159,3.16213e-07,0
0.522613,1.11478,3.09561e-07,0
0.527638,1.11793,3.00283e-07,0
0.532663,1.12108,2.91005e-07,0
0.537688,1.12423,2.81727e-07,0
0.542714,1.12738,2.72449e-07,0
0.547739,1.1304,2.61468e-07,0
0.552764,1.1334,2.50324e-07,0
0.557789,1.1364,2.39181e-07,0
0.562814,1.13941,2.28037e-07,0
0.567839,1.14241,2.16894e-07,0
0.572864,1.14527,2.10785e-07,0
0.577889,1.14813,2.0479e-07,0
0.582915,1.15098,1.98796e-07,0
0.58794,1.15384,1.92801e-07,0
0.592965,1.1567,1.86807e-07,0
0.59799,1.15942,1.92353e-07,0
0.603015,1.16214,1.99164e-07,0
0.60804,1.16485,2.05975e-07,0
0.613065,1.16756,2.12787e-07,0
0.61809,1.17027,2.19598e-07,0
0.623116,1.17289,2.42311e-07,0
0.628141,1.17545,2.72545e-07,0
0.633166,1.17802,3.02779e-07,0
0.638191,1.18059,3.33012e-07,0
0.643216,1.18315,3.63246e-07,0
0.648241,1.18567,3.98168e-07,0
0.653266,1.18809,4.43684e-07,0
0.658291,1.19051,4.892e-07,0
0.663317,1.19293,5.34716e-07,0
0.668342,1.19535,5.80231e-07,0
0.673367,1.19777,6.25747e-07,0
0.678392,1.20007,6.65941e-07,0
0.683417,1.20233,7.04637e-07,0
0.688442,1.2046,7.43334e-07,0
0.693467,1.20687,7.82031e-07,0
0.698492,1.20914,8.20727e-07,0
0.703518,1.21139,8.56754e-07,0
0.708543,1.2135,8.67538e-07,0
0.713568,1.21561,8.78321e-07,0
0.718593,1.21772,8.89104e-07,0
0.723618,1.21983,8.99888e-07,0
0.728643,1.22194,9.10671e-07,0
0.733668,1.22401,9.14483e-07,0
0.738693,1.22595,8.97115e-07,0
0.743719,1.22789,8.79747e-07,0
0.748744,1.22984,8.62379e-07,0
0.753769,1.23178,8.45011e-07,0
0.758794,1.23372,8.27644e-07,0
0.763819,1.23562,8.08522e-07,0
0.768844,1.23739,7.83588e-07,0
0.773869,1.23915,7.58654e-07,0
0.778894,1.24092,7.33721e-07,0
0.78392,1.24268,7.08787e-07,0
0.788945,1.24445,6.83853e-07,0
0.79397,1.24621,6.59281e-07,0
0.798995,1.24778,6.42685e-07,0
0.80402,1.24935,6.26088e-07,0
0.809045,1.25092,6.09491e-07,0
0.81407,1.25249,5.92895e-07,0
0.819095,1.25406,5.76298e-07,0
0.824121,1.25563,5.59701e-07,0
0.829146,1.25706,5.51039e-07,0
0.834171,1.25841,5.46156e-07,0
0.839196,1.25977,5.41272e-07,0
0.844221,1.26112,5.36389e-07,0
0.849246,1.26248,5.31506e-07,0
0.854271,1.26383,5.26622e-07,0
0.859296,1.26516,5.21996e-07,0
0.864322,1.26627,5.19109e-07,0
0.869347,1.26738,5.16222e-07,0
0.874372,1.26849,5.13335e-07,0
0.879397,1.2696,5.10449e-07,0
0.884422,1.27071,5.07562e-07,0
0.889447,1.27182,5.04675e-07,0
0.894472,1.27283,4.97864e-07,0
0.899497,1.27366,4.84969e-07,0
0.904523,1.27449,4.72074e-07,0
0.909548,1.27533,4.59178e-07,0
0.914573,1.27616,4.46283e-07,0
0.919598,1.277,4.33388e-07,0
0.924623,1.27783,4.20492e-07,0
0.929648,1.27852,4.02018e-07,0
0.934673,1.27904,3.77051e-07,0
0.939698,1.27956,3.52084e-07,0
0.944724,1.28008,3.27117e-07,0
0.949749,1.2806,3.0215e-07,0
0.954774,1.28112,2.77183e-07,0
0.959799,1.28164,2.52216e-07,0
0.964824,1.28205,2.24863e-07,0
0.969849,1.28223,1.9274e-07,0
0.974874,1.2824,1.60617e-07,0
0.979899,1.28258,1.28493e-07,0
0.984925,1.28276,9.637e-08,0
0.98995,1.28293,6.42467e-08,0
0.994975,1.28311,3.21233e-08,0
1,1.28329,0,0