/*--------------------------------*- C++ -*----------------------------------*\
  =========                 |
  \\      /  F ield         | OpenFOAM: The Open Source CFD Toolbox
   \\    /   O peration     | Website:  https://openfoam.org
    \\  /    A nd           | Version:  10
     \\/     M anipulation  |
\*---------------------------------------------------------------------------*/
FoamFile
{
    format      ascii;
    class       volScalarField;
    location    "5000";
    object      k;
}
// * * * * * * * * * * * * * * * * * * * * * * * * * * * * * * * * * * * * * //

dimensions      [0 2 -2 0 0 0 0];

internalField   nonuniform List<scalar> 
400
(
9.23273e-06
9.23317e-06
9.23262e-06
9.23254e-06
0.000273919
0.000273933
0.000273916
0.000273914
0.00165503
0.0016551
0.001655
0.00165499
0.00361966
0.00361973
0.00361954
0.00361952
0.00498562
0.00498562
0.00498539
0.00498538
0.00584292
0.00584287
0.00584262
0.00584262
0.00638431
0.00638423
0.00638398
0.006384
0.00673532
0.00673523
0.00673498
0.00673501
0.00696936
0.00696926
0.00696904
0.00696908
0.00712904
0.00712895
0.00712875
0.0071288
0.00723943
0.00723936
0.00723919
0.00723925
0.00731572
0.00731565
0.00731551
0.00731558
0.00736726
0.00736721
0.0073671
0.00736717
0.00740005
0.0074
0.00739992
0.00739999
0.00741827
0.00741823
0.00741816
0.00741825
0.00742494
0.00742491
0.00742486
0.00742495
0.00742229
0.00742225
0.00742222
0.00742231
0.00741197
0.00741194
0.00741192
0.00741202
0.00739528
0.00739525
0.00739525
0.00739534
0.00737321
0.00737318
0.00737318
0.00737327
0.00734653
0.00734651
0.00734651
0.0073466
0.00731589
0.00731587
0.00731587
0.00731595
0.00728179
0.00728177
0.00728178
0.00728185
0.00724465
0.00724463
0.00724464
0.00724471
0.00720483
0.00720482
0.00720483
0.00720489
0.00716263
0.00716261
0.00716262
0.00716268
0.00711828
0.00711827
0.00711828
0.00711833
0.00707203
0.00707202
0.00707203
0.00707207
0.00702404
0.00702404
0.00702405
0.00702408
0.0069745
0.0069745
0.00697452
0.00697453
0.00692351
0.00692351
0.00692353
0.00692353
0.00687112
0.00687112
0.00687115
0.00687113
0.00681734
0.00681735
0.00681737
0.00681735
0.00676219
0.0067622
0.00676223
0.00676219
0.00670566
0.00670567
0.00670571
0.00670565
0.00664776
0.00664777
0.00664781
0.00664775
0.00658849
0.00658851
0.00658855
0.00658848
0.00652785
0.00652787
0.00652792
0.00652784
0.00646585
0.00646587
0.00646592
0.00646584
0.00640249
0.00640251
0.00640257
0.00640247
0.00633778
0.0063378
0.00633786
0.00633777
0.00627175
0.00627177
0.00627184
0.00627173
0.00620443
0.00620446
0.00620453
0.00620442
0.00613591
0.00613594
0.00613601
0.0061359
0.00606627
0.0060663
0.00606638
0.00606626
0.00599567
0.00599571
0.00599578
0.00599566
0.00592431
0.00592435
0.00592442
0.0059243
0.00585242
0.00585245
0.00585252
0.0058524
0.00578026
0.00578029
0.00578034
0.00578025
0.00570808
0.00570809
0.00570815
0.00570808
0.00563603
0.00563604
0.00563609
0.00563605
0.00556414
0.00556415
0.0055642
0.00556416
0.00549222
0.00549222
0.00549227
0.00549222
0.00542013
0.00542015
0.00542018
0.00542013
0.00534791
0.00534793
0.00534796
0.0053479
0.00527557
0.00527559
0.00527562
0.00527555
0.00520311
0.00520313
0.00520316
0.00520309
0.00513055
0.00513057
0.0051306
0.00513052
0.0050579
0.00505792
0.00505795
0.00505787
0.00498518
0.00498519
0.00498523
0.00498514
0.00491239
0.00491241
0.00491245
0.00491236
0.00483957
0.00483959
0.00483963
0.00483954
0.00476674
0.00476676
0.0047668
0.00476671
0.00469392
0.00469394
0.00469399
0.0046939
0.00462116
0.00462118
0.00462122
0.00462114
0.00454849
0.0045485
0.00454855
0.00454848
0.00447594
0.00447596
0.004476
0.00447594
0.00440358
0.0044036
0.00440364
0.00440358
0.00433145
0.00433147
0.0043315
0.00433145
0.00425961
0.00425962
0.00425966
0.0042596
0.00418811
0.00418812
0.00418815
0.00418811
0.00411702
0.00411703
0.00411707
0.00411702
0.00404642
0.00404643
0.00404646
0.00404642
0.00397639
0.0039764
0.00397643
0.00397639
0.003907
0.00390701
0.00390704
0.003907
0.00383836
0.00383836
0.00383839
0.00383836
0.00377055
0.00377055
0.00377057
0.00377055
0.00370368
0.00370368
0.0037037
0.00370368
0.00363786
0.00363787
0.00363789
0.00363786
0.00357322
0.00357323
0.00357324
0.00357323
0.00350989
0.00350989
0.0035099
0.00350989
0.00344799
0.00344799
0.003448
0.00344799
0.00338767
0.00338767
0.00338768
0.00338768
0.00332909
0.00332909
0.0033291
0.0033291
0.00327241
0.0032724
0.00327241
0.00327241
0.00321778
0.00321778
0.00321778
0.00321779
0.00316539
0.00316539
0.00316539
0.0031654
0.00311542
0.00311542
0.00311542
0.00311543
0.00306805
0.00306805
0.00306805
0.00306807
0.00302348
0.00302348
0.00302348
0.0030235
0.00298191
0.00298191
0.00298191
0.00298193
0.00294353
0.00294353
0.00294354
0.00294355
0.00290857
0.00290857
0.00290857
0.00290859
0.00287721
0.00287721
0.00287721
0.00287723
0.00284969
0.00284969
0.00284969
0.00284971
0.00282621
0.00282621
0.00282621
0.00282622
0.00280698
0.00280698
0.00280699
0.002807
0.00279224
0.00279224
0.00279224
0.00279226
0.00278219
0.00278219
0.00278219
0.00278221
0.00277706
0.00277706
0.00277706
0.00277707
)
;

boundaryField
{
    inlet
    {
        type            cyclic;
    }
    outlet
    {
        type            cyclic;
    }
    fixedWalls-bottom
    {
        type            kqRWallFunction;
        value           nonuniform List<scalar> 4(9.23273e-06 9.23317e-06 9.23262e-06 9.23254e-06);
    }
    fixedWalls-top
    {
        type            symmetry;
    }
    frontAndBack
    {
        type            empty;
    }
}


// ************************************************************************* //
