/*--------------------------------*- C++ -*----------------------------------*\
  =========                 |
  \\      /  F ield         | OpenFOAM: The Open Source CFD Toolbox
   \\    /   O peration     | Website:  https://openfoam.org
    \\  /    A nd           | Version:  10
     \\/     M anipulation  |
\*---------------------------------------------------------------------------*/
FoamFile
{
    format      ascii;
    class       volScalarField;
    location    "5000";
    object      nut;
}
// * * * * * * * * * * * * * * * * * * * * * * * * * * * * * * * * * * * * * //

dimensions      [0 2 -1 0 0 0 0];

internalField   nonuniform List<scalar> 
400
(
7.01986e-09
7.0202e-09
7.01978e-09
7.01972e-09
1.15247e-06
1.15253e-06
1.15246e-06
1.15246e-06
1.69122e-05
1.69132e-05
1.69122e-05
1.69122e-05
6.18013e-05
6.18033e-05
6.17994e-05
6.17992e-05
0.000120413
0.000120414
0.000120408
0.000120406
0.00018879
0.00018879
0.00018878
0.000188778
0.000264841
0.00026484
0.000264828
0.000264824
0.00034659
0.000346591
0.000346576
0.00034657
0.000432334
0.000432337
0.00043232
0.000432312
0.000520528
0.000520528
0.000520509
0.000520502
0.000609209
0.000609181
0.000609161
0.000609172
0.000697679
0.000697652
0.000697635
0.000697653
0.000787155
0.000787127
0.000787116
0.000787142
0.000877451
0.000877428
0.00087742
0.000877456
0.000968443
0.000968426
0.000968421
0.000968469
0.00106005
0.00106004
0.00106003
0.00106009
0.00115221
0.00115221
0.00115221
0.00115228
0.00124491
0.0012449
0.00124491
0.00124499
0.00133813
0.00133812
0.00133814
0.00133823
0.00143187
0.00143187
0.00143188
0.00143198
0.00152615
0.00152615
0.00152617
0.00152627
0.001621
0.00162099
0.00162101
0.00162112
0.00171643
0.00171642
0.00171645
0.00171655
0.00181248
0.00181248
0.0018125
0.0018126
0.0019092
0.0019092
0.00190922
0.00190931
0.00200661
0.00200661
0.00200665
0.00200671
0.00210476
0.00210476
0.00210481
0.00210484
0.00220368
0.00220369
0.00220374
0.00220373
0.0023034
0.00230342
0.00230347
0.00230343
0.00240396
0.00240398
0.00240403
0.00240395
0.00250297
0.002503
0.002503
0.00250294
0.00259996
0.00259999
0.00259998
0.00259993
0.00269582
0.00269585
0.00269584
0.00269579
0.0027911
0.00279112
0.00279113
0.00279109
0.00288613
0.00288615
0.00288617
0.00288613
0.00298108
0.00298109
0.00298112
0.00298108
0.00307602
0.00307602
0.00307606
0.00307602
0.00317099
0.00317099
0.00317103
0.00317099
0.00326604
0.00326605
0.00326609
0.00326605
0.00336132
0.00336132
0.00336138
0.00336133
0.00345708
0.0034571
0.00345717
0.00345709
0.00355382
0.00355386
0.00355393
0.00355382
0.0036523
0.00365236
0.00365241
0.00365227
0.00375361
0.00375367
0.00375368
0.00375354
0.00385918
0.0038592
0.00385914
0.00385906
0.00397067
0.00397058
0.00397046
0.00397054
0.00408975
0.0040895
0.00408935
0.00408973
0.00421764
0.00421723
0.00421712
0.00421794
0.0043544
0.00435392
0.00435394
0.00435519
0.00449777
0.0044974
0.00449759
0.00449896
0.00464162
0.00464156
0.00464173
0.00464232
0.00477401
0.00477417
0.00477376
0.00477186
0.00488341
0.00488353
0.00488307
0.00488113
0.00499164
0.00499172
0.00499123
0.00498923
0.00509822
0.00509826
0.00509777
0.00509569
0.00520275
0.00520273
0.0052023
0.00520015
0.00530493
0.00530475
0.0053045
0.00530226
0.00540462
0.00540418
0.00540407
0.00540177
0.00550134
0.00550093
0.00550081
0.00549851
0.00559512
0.00559474
0.00559462
0.00559239
0.00568588
0.00568559
0.00568546
0.00568333
0.00577357
0.00577352
0.00577334
0.00577131
0.00585846
0.00585847
0.00585827
0.00585635
0.00594045
0.0059405
0.00594028
0.00593846
0.00601954
0.00601964
0.00601939
0.00601767
0.00609577
0.00609591
0.0060956
0.006094
0.00616914
0.00616927
0.00616895
0.00616745
0.00623966
0.00623974
0.00623944
0.00623803
0.00630729
0.00630735
0.00630708
0.00630575
0.00637204
0.00637207
0.00637187
0.0063706
0.00643394
0.00643389
0.00643382
0.00643261
0.00649307
0.00649294
0.00649291
0.00649179
0.00654931
0.0065492
0.00654917
0.00654816
0.00660277
0.00660269
0.00660266
0.00660177
0.00665349
0.00665346
0.00665343
0.00665266
0.00670156
0.00670157
0.00670155
0.00670091
0.00674705
0.00674711
0.00674709
0.00674658
0.00679007
0.00679018
0.00679015
0.00678978
0.00683072
0.00683088
0.00683083
0.00683062
0.00686913
0.0068693
0.00686926
0.00686919
0.00690546
0.00690554
0.00690559
0.00690562
0.00693974
0.00693975
0.0069399
0.00694006
0.00697214
0.00697219
0.00697231
0.00697261
0.00700277
0.00700273
0.00700297
0.00700341
0.00703175
0.00703178
0.00703199
0.00703257
0.00705919
0.00705944
0.00705951
0.00706017
0.00708523
0.00708551
0.00708557
0.00708635
0.00710991
0.00711017
0.00711028
0.00711117
0.00713325
0.00713344
0.00713365
0.00713468
0.00715522
0.00715573
0.00715561
0.00715689
0.00717608
0.0071765
0.00717646
0.00717773
0.00719573
0.00719586
0.00719604
0.00719718
0.00721374
0.00721406
0.00721415
0.00721518
0.00723022
0.00723058
0.00723064
0.00723166
0.00724502
0.00724536
0.00724542
0.00724645
0.00725794
0.00725822
0.00725832
0.00725936
0.00726873
0.00726891
0.0072691
0.00727023
0.0072771
0.00727769
0.00727743
0.00727882
0.0072831
0.00728375
0.00728345
0.00728487
0.00728633
0.00728709
0.00728682
0.0072882
)
;

boundaryField
{
    inlet
    {
        type            cyclic;
    }
    outlet
    {
        type            cyclic;
    }
    fixedWalls-bottom
    {
        type            nutkWallFunction;
        Cmu             0.09;
        kappa           0.41;
        E               9.8;
        value           uniform 0;
    }
    fixedWalls-top
    {
        type            symmetry;
    }
    frontAndBack
    {
        type            empty;
    }
}


// ************************************************************************* //
