/*--------------------------------*- C++ -*----------------------------------*\
  =========                 |
  \\      /  F ield         | OpenFOAM: The Open Source CFD Toolbox
   \\    /   O peration     | Website:  https://openfoam.org
    \\  /    A nd           | Version:  10
     \\/     M anipulation  |
\*---------------------------------------------------------------------------*/
FoamFile
{
    format      ascii;
    class       surfaceScalarField;
    location    "5000";
    object      phi;
}
// * * * * * * * * * * * * * * * * * * * * * * * * * * * * * * * * * * * * * //

dimensions      [0 3 -1 0 0 0 0];

internalField   nonuniform List<scalar> 
696
(
0.000654922
-4.80369e-09
0.000654922
-1.76209e-10
0.000654917
4.83988e-09
1.75678e-10
0.00198697
-1.9485e-08
0.00198697
2.30485e-10
0.00198695
1.95194e-08
-2.31847e-10
0.00325106
-4.10897e-08
0.00325106
3.26215e-09
0.00325103
4.11223e-08
-3.26409e-09
0.0042602
-6.21773e-08
0.0042602
8.26792e-09
0.00426018
6.22088e-08
-8.27024e-09
0.00502039
-7.90932e-08
0.00502039
1.33456e-08
0.00502037
7.91236e-08
-1.33482e-08
0.00561962
-9.11701e-08
0.00561962
1.79616e-08
0.00561961
9.11999e-08
-1.79644e-08
0.00611527
-9.85138e-08
0.00611527
2.26716e-08
0.00611526
9.85429e-08
-2.26745e-08
0.006542
-1.01413e-07
0.006542
2.85993e-08
0.006542
1.01441e-07
-2.86025e-08
0.00692139
-9.99711e-08
0.00692138
3.67422e-08
0.00692138
9.99991e-08
-3.67454e-08
0.00726737
-9.43277e-08
0.00726736
4.68884e-08
0.00726737
9.43554e-08
-4.68918e-08
0.00758943
-8.59348e-08
0.00758942
5.61293e-08
0.00758943
8.5962e-08
-5.61328e-08
0.00789415
-7.62082e-08
0.00789415
6.30503e-08
0.00789416
7.62351e-08
-6.30539e-08
0.00818595
-6.58498e-08
0.00818594
6.83437e-08
0.00818595
6.58762e-08
-6.83474e-08
0.00846786
-5.54446e-08
0.00846785
7.24763e-08
0.00846786
5.54707e-08
-7.24801e-08
0.00874218
-4.54147e-08
0.00874218
7.58302e-08
0.00874219
4.54404e-08
-7.58341e-08
0.00901068
-3.61252e-08
0.00901068
7.86043e-08
0.00901068
3.61507e-08
-7.86082e-08
0.00927473
-2.78587e-08
0.00927473
8.08546e-08
0.00927474
2.78838e-08
-8.08586e-08
0.00953544
-2.08235e-08
0.00953544
8.25117e-08
0.00953545
2.08484e-08
-8.25158e-08
0.0097937
-1.51424e-08
0.0097937
8.3485e-08
0.00979371
1.51669e-08
-8.34892e-08
0.0100503
-1.08594e-08
0.0100503
8.37261e-08
0.0100503
1.08837e-08
-8.37304e-08
0.0103057
-7.96855e-09
0.0103057
8.31969e-08
0.0103057
7.99251e-09
-8.32013e-08
0.0105606
-6.41594e-09
0.0105606
8.18822e-08
0.0105606
6.4397e-09
-8.18867e-08
0.0108153
-6.10686e-09
0.0108153
7.97984e-08
0.0108153
6.13028e-09
-7.98029e-08
0.0110702
-6.90684e-09
0.0110702
7.70056e-08
0.0110702
6.93006e-09
-7.70101e-08
0.0113257
-8.65198e-09
0.0113257
7.36347e-08
0.0113257
8.67487e-09
-7.36393e-08
0.0115821
-1.11379e-08
0.0115821
6.99336e-08
0.0115821
1.11606e-08
-6.99384e-08
0.0118395
-1.41039e-08
0.0118395
6.62574e-08
0.0118395
1.41262e-08
-6.62622e-08
0.0120982
-1.7239e-08
0.0120983
6.29706e-08
0.0120982
1.72611e-08
-6.29755e-08
0.0123585
-2.01836e-08
0.0123585
6.03414e-08
0.0123585
2.02055e-08
-6.03463e-08
0.0126205
-2.24739e-08
0.0126205
5.84881e-08
0.0126205
2.24956e-08
-5.8493e-08
0.0128844
-2.36951e-08
0.0128844
5.71301e-08
0.0128844
2.37164e-08
-5.71351e-08
0.0131505
-2.37585e-08
0.0131505
5.59496e-08
0.0131505
2.37797e-08
-5.59547e-08
0.0134189
-2.28686e-08
0.0134189
5.49534e-08
0.0134189
2.28894e-08
-5.49585e-08
0.0136898
-2.13263e-08
0.0136898
5.42018e-08
0.0136898
2.1347e-08
-5.42069e-08
0.0139634
-1.94181e-08
0.0139634
5.37098e-08
0.0139634
1.94385e-08
-5.3715e-08
0.0142398
-1.73654e-08
0.0142398
5.34323e-08
0.0142398
1.73856e-08
-5.34375e-08
0.0145191
-1.53263e-08
0.0145191
5.32934e-08
0.0145191
1.53462e-08
-5.32986e-08
0.0148014
-1.34114e-08
0.0148014
5.32296e-08
0.0148014
1.3431e-08
-5.32349e-08
0.0150867
-1.16992e-08
0.0150867
5.32391e-08
0.0150867
1.17186e-08
-5.32444e-08
0.0153753
-1.02236e-08
0.0153753
5.34113e-08
0.0153753
1.02427e-08
-5.34166e-08
0.0156672
-8.93403e-09
0.0156672
5.39254e-08
0.0156672
8.95289e-09
-5.39308e-08
0.0159624
-7.63452e-09
0.0159624
5.4986e-08
0.0159624
7.65317e-09
-5.49914e-08
0.0162611
-5.95502e-09
0.0162611
5.66849e-08
0.0162611
5.97338e-09
-5.66903e-08
0.0165632
-3.42055e-09
0.0165632
5.87958e-08
0.0165632
3.4387e-09
-5.88013e-08
0.0168688
2.88683e-10
0.0168688
6.05722e-08
0.0168688
-2.70822e-10
-6.05776e-08
0.0171779
4.86223e-09
0.0171779
6.06714e-08
0.0171779
-4.84458e-09
-6.06769e-08
0.0174904
8.75585e-09
0.0174905
5.73831e-08
0.0174905
-8.73849e-09
-5.73885e-08
0.0178064
8.79203e-09
0.0178064
4.92665e-08
0.0178064
-8.77488e-09
-4.92719e-08
0.0181257
5.27134e-10
0.0181257
3.60855e-08
0.0181257
-5.10255e-10
-3.60909e-08
0.0184484
-1.9878e-08
0.0184484
1.94885e-08
0.0184484
1.98947e-08
-1.9494e-08
0.0187745
-5.16828e-08
0.0187745
2.4319e-09
0.0187745
5.16992e-08
-2.43737e-09
0.0191042
-8.33117e-08
0.0191042
-1.38259e-08
0.0191042
8.33279e-08
1.38205e-08
0.0194378
-1.06152e-07
0.0194378
-2.92052e-08
0.0194378
1.06168e-07
2.91997e-08
0.0197756
-1.2135e-07
0.0197756
-4.30573e-08
0.0197756
1.21366e-07
4.30518e-08
0.0201176
-1.29915e-07
0.0201176
-5.49651e-08
0.0201176
1.29931e-07
5.49597e-08
0.0204638
-1.32852e-07
0.0204639
-6.4623e-08
0.0204638
1.32867e-07
6.46176e-08
0.0208145
-1.31419e-07
0.0208145
-7.17906e-08
0.0208145
1.31434e-07
7.17852e-08
0.0211697
-1.26934e-07
0.0211697
-7.67814e-08
0.0211697
1.26948e-07
7.67761e-08
0.0215294
-1.20239e-07
0.0215294
-8.00787e-08
0.0215294
1.20253e-07
8.00734e-08
0.0218938
-1.11952e-07
0.0218938
-8.18672e-08
0.0218938
1.11966e-07
8.1862e-08
0.0222629
-1.02784e-07
0.0222629
-8.22499e-08
0.022263
1.02797e-07
8.22447e-08
0.0226369
-9.32879e-08
0.0226369
-8.09502e-08
0.0226369
9.33014e-08
8.09451e-08
0.0230157
-8.38671e-08
0.0230157
-7.78099e-08
0.0230157
8.38804e-08
7.78048e-08
0.0233995
-7.4848e-08
0.0233995
-7.30774e-08
0.0233995
7.48609e-08
7.30723e-08
0.0237883
-6.63867e-08
0.0237883
-6.70522e-08
0.0237883
6.63994e-08
6.70472e-08
0.0241822
-5.8453e-08
0.0241822
-6.008e-08
0.0241822
5.84654e-08
6.00751e-08
0.0245813
-5.09642e-08
0.0245813
-5.25301e-08
0.0245813
5.09763e-08
5.25252e-08
0.0249856
-4.39011e-08
0.0249856
-4.4765e-08
0.0249856
4.39129e-08
4.47602e-08
0.0253951
-3.72462e-08
0.0253951
-3.70424e-08
0.0253951
3.72578e-08
3.70376e-08
0.0258101
-3.0991e-08
0.02581
-2.94694e-08
0.0258101
3.10023e-08
2.94647e-08
0.0262304
-2.52545e-08
0.0262303
-2.20653e-08
0.0262304
2.52655e-08
2.20607e-08
0.0266561
-2.01217e-08
0.0266561
-1.49905e-08
0.0266561
2.01324e-08
1.49859e-08
0.0270873
-1.54997e-08
0.0270873
-8.4348e-09
0.0270873
1.55101e-08
8.43026e-09
0.027524
-1.12769e-08
0.027524
-2.42326e-09
0.027524
1.1287e-08
2.41879e-09
0.0279663
-7.38455e-09
0.0279663
3.0651e-09
0.0279663
7.3943e-09
-3.06948e-09
0.0284142
-3.7837e-09
0.0284142
8.08577e-09
0.0284142
3.79315e-09
-8.09007e-09
0.0288677
-4.44119e-10
0.0288677
1.27075e-08
0.0288677
4.53235e-10
-1.27117e-08
0.0293268
2.67754e-09
0.0293268
1.69875e-08
0.0293268
-2.66874e-09
-1.69917e-08
0.0297916
5.62574e-09
0.0297916
2.09476e-08
0.0297916
-5.61728e-09
-2.09516e-08
0.030262
8.41719e-09
0.030262
2.4535e-08
0.030262
-8.40906e-09
-2.45389e-08
0.0307381
1.10047e-08
0.0307381
2.76468e-08
0.0307381
-1.09969e-08
-2.76506e-08
0.0312199
1.32259e-08
0.0312199
3.01971e-08
0.0312199
-1.32184e-08
-3.02008e-08
0.0317073
1.50263e-08
0.0317073
3.21108e-08
0.0317073
-1.50192e-08
-3.21144e-08
0.0322003
1.62823e-08
0.0322003
3.33432e-08
0.0322003
-1.62756e-08
-3.33467e-08
0.0326989
1.68507e-08
0.0326989
3.39205e-08
0.0326989
-1.68444e-08
-3.39238e-08
0.033203
1.70324e-08
0.033203
3.39534e-08
0.033203
-1.70264e-08
-3.39566e-08
0.0337126
1.70736e-08
0.0337126
3.35352e-08
0.0337126
-1.7068e-08
-3.35382e-08
0.0342277
1.68935e-08
0.0342277
3.26894e-08
0.0342277
-1.68883e-08
-3.26924e-08
0.0347482
1.6229e-08
0.0347482
3.14354e-08
0.0347482
-1.62241e-08
-3.14382e-08
0.035274
1.50931e-08
0.035274
2.97771e-08
0.035274
-1.50887e-08
-2.97797e-08
0.035805
1.36839e-08
0.035805
2.77268e-08
0.035805
-1.36799e-08
-2.77292e-08
0.036341
1.19726e-08
0.0363411
2.52533e-08
0.036341
-1.19691e-08
-2.52556e-08
0.0368821
1.0152e-08
0.0368822
2.24615e-08
0.0368821
-1.01488e-08
-2.24635e-08
0.0374281
8.46861e-09
0.0374281
1.95277e-08
0.0374281
-8.46594e-09
-1.95295e-08
0.0379788
6.94683e-09
0.0379788
1.64939e-08
0.0379788
-6.94463e-09
-1.64954e-08
0.0385341
5.53923e-09
0.0385341
1.33645e-08
0.0385341
-5.53749e-09
-1.33658e-08
0.0390938
4.11704e-09
0.0390939
1.01378e-08
0.0390938
-4.11578e-09
-1.01388e-08
0.0396578
2.69339e-09
0.0396578
6.81439e-09
0.0396578
-2.69263e-09
-6.81505e-09
0.0402257
1.32043e-09
0.0402257
3.41528e-09
0.0402257
-1.32014e-09
-3.41556e-09
0.0407975
0.0407975
0.0407975
)
;

boundaryField
{
    inlet
    {
        type            cyclic;
        value           nonuniform List<scalar> 
100
(
-0.0407975
-0.0402257
-0.0396578
-0.0390938
-0.0385341
-0.0379788
-0.0374281
-0.0368821
-0.036341
-0.035805
-0.035274
-0.0347482
-0.0342277
-0.0337126
-0.033203
-0.0326989
-0.0322003
-0.0317073
-0.0312199
-0.0307381
-0.030262
-0.0297916
-0.0293268
-0.0288677
-0.0284142
-0.0279663
-0.027524
-0.0270873
-0.0266561
-0.0262304
-0.0258101
-0.0253951
-0.0249856
-0.0245813
-0.0241822
-0.0237883
-0.0233995
-0.0230157
-0.0226369
-0.022263
-0.0218938
-0.0215294
-0.0211697
-0.0208145
-0.0204638
-0.0201175
-0.0197756
-0.0194378
-0.0191042
-0.0187745
-0.0184484
-0.0181257
-0.0178064
-0.0174905
-0.0171779
-0.0168688
-0.0165632
-0.0162611
-0.0159624
-0.0156672
-0.0153753
-0.0150867
-0.0148014
-0.0145191
-0.0142398
-0.0139634
-0.0136898
-0.0134189
-0.0131505
-0.0128844
-0.0126205
-0.0123585
-0.0120982
-0.0118395
-0.011582
-0.0113257
-0.0110702
-0.0108153
-0.0105606
-0.0103057
-0.0100503
-0.00979371
-0.00953545
-0.00927474
-0.00901069
-0.00874219
-0.00846787
-0.00818596
-0.00789416
-0.00758944
-0.00726738
-0.00692139
-0.006542
-0.00611527
-0.00561961
-0.00502037
-0.00426018
-0.00325104
-0.00198695
-0.000654917
)
;
    }
    outlet
    {
        type            cyclic;
        value           nonuniform List<scalar> 
100
(
0.0407975
0.0402257
0.0396578
0.0390938
0.0385341
0.0379788
0.0374281
0.0368821
0.036341
0.035805
0.035274
0.0347482
0.0342277
0.0337126
0.033203
0.0326989
0.0322003
0.0317073
0.0312199
0.0307381
0.030262
0.0297916
0.0293268
0.0288677
0.0284142
0.0279663
0.027524
0.0270873
0.0266561
0.0262304
0.0258101
0.0253951
0.0249856
0.0245813
0.0241822
0.0237883
0.0233995
0.0230157
0.0226369
0.022263
0.0218938
0.0215294
0.0211697
0.0208145
0.0204638
0.0201175
0.0197756
0.0194378
0.0191042
0.0187745
0.0184484
0.0181257
0.0178064
0.0174905
0.0171779
0.0168688
0.0165632
0.0162611
0.0159624
0.0156672
0.0153753
0.0150867
0.0148014
0.0145191
0.0142398
0.0139634
0.0136898
0.0134189
0.0131505
0.0128844
0.0126205
0.0123585
0.0120982
0.0118395
0.011582
0.0113257
0.0110702
0.0108153
0.0105606
0.0103057
0.0100503
0.00979371
0.00953545
0.00927474
0.00901069
0.00874219
0.00846787
0.00818596
0.00789416
0.00758944
0.00726738
0.00692139
0.006542
0.00611527
0.00561961
0.00502037
0.00426018
0.00325104
0.00198695
0.000654917
)
;
    }
    fixedWalls-bottom
    {
        type            calculated;
        value           uniform 0;
    }
    fixedWalls-top
    {
        type            symmetry;
        value           uniform 0;
    }
    frontAndBack
    {
        type            empty;
        value           nonuniform List<scalar> 0();
    }
}


// ************************************************************************* //
