/*--------------------------------*- C++ -*----------------------------------*\
  =========                 |
  \\      /  F ield         | OpenFOAM: The Open Source CFD Toolbox
   \\    /   O peration     | Website:  https://openfoam.org
    \\  /    A nd           | Version:  10
     \\/     M anipulation  |
\*---------------------------------------------------------------------------*/
FoamFile
{
    format      ascii;
    class       volVectorField;
    location    "5000";
    object      U;
}
// * * * * * * * * * * * * * * * * * * * * * * * * * * * * * * * * * * * * * //

dimensions      [0 1 -1 0 0 0 0];

internalField   nonuniform List<vector> 
400
(
(0.0709748 -5.46494e-10 0)
(0.0709754 -1.10572e-10 0)
(0.0709748 5.64257e-10 0)
(0.0709744 1.10157e-10 0)
(0.212336 -1.06174e-08 0)
(0.212338 -2.62237e-11 0)
(0.212336 1.06572e-08 0)
(0.212335 2.5343e-11 0)
(0.342592 -3.02991e-08 0)
(0.342594 2.02926e-09 0)
(0.342591 3.03345e-08 0)
(0.342589 -2.03086e-09 0)
(0.442692 -5.22324e-08 0)
(0.442694 5.50027e-09 0)
(0.442691 5.22644e-08 0)
(0.442689 -5.50242e-09 0)
(0.514432 -7.16459e-08 0)
(0.514433 1.03609e-08 0)
(0.514431 7.16766e-08 0)
(0.514429 -1.03633e-08 0)
(0.567828 -8.62137e-08 0)
(0.567828 1.52114e-08 0)
(0.567827 8.62437e-08 0)
(0.567826 -1.52141e-08 0)
(0.609318 -9.59164e-08 0)
(0.609318 1.98173e-08 0)
(0.609317 9.59458e-08 0)
(0.609317 -1.98202e-08 0)
(0.642773 -1.00979e-07 0)
(0.642773 2.5189e-08 0)
(0.642772 1.01008e-07 0)
(0.642772 -2.5192e-08 0)
(0.670592 -1.01487e-07 0)
(0.670591 3.25764e-08 0)
(0.670591 1.01516e-07 0)
(0.670592 -3.25796e-08 0)
(0.694323 -9.76447e-08 0)
(0.694322 4.20833e-08 0)
(0.694321 9.76726e-08 0)
(0.694323 -4.20866e-08 0)
(0.71501 -9.07467e-08 0)
(0.715009 5.1315e-08 0)
(0.715008 9.07742e-08 0)
(0.71501 -5.13185e-08 0)
(0.733376 -8.13568e-08 0)
(0.733375 5.99482e-08 0)
(0.733375 8.13837e-08 0)
(0.733377 -5.99518e-08 0)
(0.749909 -7.11233e-08 0)
(0.749908 6.6079e-08 0)
(0.749908 7.11499e-08 0)
(0.74991 -6.60827e-08 0)
(0.764948 -6.05884e-08 0)
(0.764947 7.0703e-08 0)
(0.764947 6.06147e-08 0)
(0.764949 -7.07067e-08 0)
(0.778748 -5.0274e-08 0)
(0.778747 7.437e-08 0)
(0.778747 5.02999e-08 0)
(0.778749 -7.43738e-08 0)
(0.791504 -4.05428e-08 0)
(0.791503 7.73993e-08 0)
(0.791503 4.05684e-08 0)
(0.791505 -7.74032e-08 0)
(0.80337 -3.1709e-08 0)
(0.803369 7.99101e-08 0)
(0.803369 3.17344e-08 0)
(0.80337 -7.99141e-08 0)
(0.814467 -2.40281e-08 0)
(0.814466 8.18575e-08 0)
(0.814467 2.40531e-08 0)
(0.814468 -8.18615e-08 0)
(0.824894 -1.76489e-08 0)
(0.824894 8.31911e-08 0)
(0.824894 1.76736e-08 0)
(0.824895 -8.31952e-08 0)
(0.834731 -1.26655e-08 0)
(0.834731 8.38075e-08 0)
(0.834731 1.26899e-08 0)
(0.834732 -8.38118e-08 0)
(0.844045 -9.08969e-09 0)
(0.844045 8.36644e-08 0)
(0.844046 9.11383e-09 0)
(0.844046 -8.36688e-08 0)
(0.852892 -6.88985e-09 0)
(0.852891 8.27364e-08 0)
(0.852892 6.91371e-09 0)
(0.852892 -8.27408e-08 0)
(0.861317 -5.98934e-09 0)
(0.861317 8.10195e-08 0)
(0.861317 6.01293e-09 0)
(0.861317 -8.10239e-08 0)
(0.869361 -6.27265e-09 0)
(0.869361 7.85438e-08 0)
(0.869361 6.29597e-09 0)
(0.869361 -7.85483e-08 0)
(0.877057 -7.59494e-09 0)
(0.877057 7.54025e-08 0)
(0.877058 7.61799e-09 0)
(0.877057 -7.54072e-08 0)
(0.884436 -9.76628e-09 0)
(0.884437 7.17984e-08 0)
(0.884437 9.78907e-09 0)
(0.884436 -7.18031e-08 0)
(0.891523 -1.25587e-08 0)
(0.891523 6.80386e-08 0)
(0.891524 1.25812e-08 0)
(0.891523 -6.80433e-08 0)
(0.89834 -1.56975e-08 0)
(0.89834 6.44945e-08 0)
(0.898341 1.57198e-08 0)
(0.89834 -6.44994e-08 0)
(0.904907 -1.88369e-08 0)
(0.904907 6.15164e-08 0)
(0.904907 1.88589e-08 0)
(0.904906 -6.15213e-08 0)
(0.91124 -2.15025e-08 0)
(0.91124 5.93135e-08 0)
(0.911241 2.15243e-08 0)
(0.91124 -5.93184e-08 0)
(0.917359 -2.32878e-08 0)
(0.917359 5.7649e-08 0)
(0.917359 2.33093e-08 0)
(0.917359 -5.7654e-08 0)
(0.923283 -2.39484e-08 0)
(0.923283 5.64378e-08 0)
(0.923283 2.39696e-08 0)
(0.923283 -5.64428e-08 0)
(0.929027 -2.35026e-08 0)
(0.929027 5.53896e-08 0)
(0.929027 2.35236e-08 0)
(0.929027 -5.53947e-08 0)
(0.934605 -2.22258e-08 0)
(0.934605 5.45238e-08 0)
(0.934605 2.22466e-08 0)
(0.934605 -5.45289e-08 0)
(0.940027 -2.04385e-08 0)
(0.940027 5.39051e-08 0)
(0.940027 2.0459e-08 0)
(0.940027 -5.39102e-08 0)
(0.945303 -1.84078e-08 0)
(0.945303 5.35293e-08 0)
(0.945303 1.84281e-08 0)
(0.945303 -5.35345e-08 0)
(0.95044 -1.63256e-08 0)
(0.950439 5.33307e-08 0)
(0.95044 1.63456e-08 0)
(0.95044 -5.3336e-08 0)
(0.955445 -1.43251e-08 0)
(0.955445 5.32304e-08 0)
(0.955445 1.43448e-08 0)
(0.955445 -5.32357e-08 0)
(0.960325 -1.25027e-08 0)
(0.960325 5.31891e-08 0)
(0.960325 1.25222e-08 0)
(0.960325 -5.31944e-08 0)
(0.965086 -1.09209e-08 0)
(0.965085 5.32511e-08 0)
(0.965086 1.09402e-08 0)
(0.965086 -5.32564e-08 0)
(0.969731 -9.57938e-09 0)
(0.969731 5.35633e-08 0)
(0.969731 9.59839e-09 0)
(0.969731 -5.35686e-08 0)
(0.974267 -8.35573e-09 0)
(0.974266 5.4344e-08 0)
(0.974266 8.37448e-09 0)
(0.974267 -5.43494e-08 0)
(0.978694 -6.94762e-09 0)
(0.978694 5.57786e-08 0)
(0.978694 6.96612e-09 0)
(0.978694 -5.5784e-08 0)
(0.983016 -4.87921e-09 0)
(0.983015 5.78345e-08 0)
(0.983015 4.89745e-09 0)
(0.983016 -5.78399e-08 0)
(0.987232 -1.66125e-09 0)
(0.987231 6.00327e-08 0)
(0.987232 1.67927e-09 0)
(0.987232 -6.00382e-08 0)
(0.991341 2.82171e-09 0)
(0.991341 6.12782e-08 0)
(0.991341 -2.8039e-09 0)
(0.991342 -6.12838e-08 0)
(0.995342 7.69952e-09 0)
(0.995342 5.99248e-08 0)
(0.995343 -7.68202e-09 0)
(0.995343 -5.99304e-08 0)
(0.999232 1.04445e-08 0)
(0.999232 5.42613e-08 0)
(0.999232 -1.04275e-08 0)
(0.999232 -5.42666e-08 0)
(1.00301 6.64279e-09 0)
(1.00301 4.34424e-08 0)
(1.00301 -6.62587e-09 0)
(1.00301 -4.3447e-08 0)
(1.00667 -8.59402e-09 0)
(1.00667 2.838e-08 0)
(1.00667 8.61134e-09 0)
(1.00667 -2.83849e-08 0)
(1.01022 -3.60362e-08 0)
(1.01022 1.14126e-08 0)
(1.01022 3.60527e-08 0)
(1.01021 -1.14198e-08 0)
(1.01366 -6.63218e-08 0)
(1.01366 -6.08077e-09 0)
(1.01366 6.63376e-08 0)
(1.01366 6.07443e-09 0)
(1.01702 -9.60493e-08 0)
(1.01702 -2.20177e-08 0)
(1.01702 9.60655e-08 0)
(1.01702 2.20133e-08 0)
(1.02031 -1.15692e-07 0)
(1.02031 -3.66882e-08 0)
(1.02031 1.15708e-07 0)
(1.02031 3.6683e-08 0)
(1.02352 -1.27224e-07 0)
(1.02352 -4.96354e-08 0)
(1.02352 1.27239e-07 0)
(1.02352 4.963e-08 0)
(1.02666 -1.32545e-07 0)
(1.02666 -6.0422e-08 0)
(1.02666 1.3256e-07 0)
(1.02666 6.04166e-08 0)
(1.02973 -1.33053e-07 0)
(1.02973 -6.87332e-08 0)
(1.02973 1.33068e-07 0)
(1.02973 6.87279e-08 0)
(1.03274 -1.29871e-07 0)
(1.03274 -7.48675e-08 0)
(1.03274 1.29886e-07 0)
(1.03274 7.48622e-08 0)
(1.03568 -1.23999e-07 0)
(1.03568 -7.88864e-08 0)
(1.03568 1.24013e-07 0)
(1.03568 7.88811e-08 0)
(1.03857 -1.16348e-07 0)
(1.03857 -8.14044e-08 0)
(1.03857 1.16362e-07 0)
(1.03857 8.13992e-08 0)
(1.04139 -1.07501e-07 0)
(1.04139 -8.24963e-08 0)
(1.04139 1.07515e-07 0)
(1.04139 8.24911e-08 0)
(1.04416 -9.80205e-08 0)
(1.04416 -8.19369e-08 0)
(1.04416 9.80342e-08 0)
(1.04416 8.19317e-08 0)
(1.04687 -8.84828e-08 0)
(1.04687 -7.97486e-08 0)
(1.04687 8.84962e-08 0)
(1.04687 7.97435e-08 0)
(1.04953 -7.92212e-08 0)
(1.04953 -7.57709e-08 0)
(1.04953 7.92343e-08 0)
(1.04953 7.57658e-08 0)
(1.05213 -7.04628e-08 0)
(1.05213 -7.03075e-08 0)
(1.05213 7.04757e-08 0)
(1.05213 7.03025e-08 0)
(1.05468 -6.22506e-08 0)
(1.05468 -6.37209e-08 0)
(1.05468 6.22632e-08 0)
(1.05468 6.37159e-08 0)
(1.05718 -5.45597e-08 0)
(1.05718 -5.63789e-08 0)
(1.05718 5.4572e-08 0)
(1.05718 5.63739e-08 0)
(1.05962 -4.73068e-08 0)
(1.05962 -4.86684e-08 0)
(1.05962 4.73188e-08 0)
(1.05962 4.86635e-08 0)
(1.06202 -4.04369e-08 0)
(1.06202 -4.08721e-08 0)
(1.06202 4.04486e-08 0)
(1.06202 4.08672e-08 0)
(1.06436 -3.39661e-08 0)
(1.06436 -3.31795e-08 0)
(1.06436 3.39775e-08 0)
(1.06436 3.31747e-08 0)
(1.06665 -2.80021e-08 0)
(1.06665 -2.56337e-08 0)
(1.06665 2.80132e-08 0)
(1.06665 2.5629e-08 0)
(1.06889 -2.25609e-08 0)
(1.06889 -1.8419e-08 0)
(1.06889 2.25717e-08 0)
(1.06889 1.84144e-08 0)
(1.07108 -1.76838e-08 0)
(1.07108 -1.15721e-08 0)
(1.07108 1.76944e-08 0)
(1.07108 1.15675e-08 0)
(1.07321 -1.32832e-08 0)
(1.07321 -5.27919e-09 0)
(1.07321 1.32934e-08 0)
(1.07321 5.27468e-09 0)
(1.07529 -9.24429e-09 0)
(1.07529 4.62642e-10 0)
(1.07529 9.25421e-09 0)
(1.07529 -4.67074e-10 0)
(1.07732 -5.5127e-09 0)
(1.07732 5.70329e-09 0)
(1.07732 5.5223e-09 0)
(1.07732 -5.70764e-09 0)
(1.0793 -2.05248e-09 0)
(1.0793 1.0511e-08 0)
(1.0793 2.06176e-09 0)
(1.0793 -1.05152e-08 0)
(1.08122 1.17173e-09 0)
(1.08122 1.49564e-08 0)
(1.08122 -1.16277e-09 0)
(1.08122 -1.49606e-08 0)
(1.08308 4.20653e-09 0)
(1.08308 1.90815e-08 0)
(1.08308 -4.1979e-09 0)
(1.08308 -1.90855e-08 0)
(1.08488 7.08525e-09 0)
(1.08488 2.28602e-08 0)
(1.08488 -7.07695e-09 0)
(1.08488 -2.28641e-08 0)
(1.08663 9.78749e-09 0)
(1.08663 2.62267e-08 0)
(1.08663 -9.77953e-09 0)
(1.08663 -2.62306e-08 0)
(1.08831 1.21825e-08 0)
(1.08831 2.9083e-08 0)
(1.08831 -1.21749e-08 0)
(1.08831 -2.90868e-08 0)
(1.08993 1.42758e-08 0)
(1.08993 3.13205e-08 0)
(1.08993 -1.42685e-08 0)
(1.08993 -3.13241e-08 0)
(1.09149 1.57303e-08 0)
(1.09149 3.28939e-08 0)
(1.09149 -1.57234e-08 0)
(1.09149 -3.28975e-08 0)
(1.09298 1.66269e-08 0)
(1.09298 3.37825e-08 0)
(1.09298 -1.66203e-08 0)
(1.09298 -3.37859e-08 0)
(1.09439 1.70632e-08 0)
(1.09439 3.4081e-08 0)
(1.09439 -1.7057e-08 0)
(1.09439 -3.40843e-08 0)
(1.09574 1.71378e-08 0)
(1.09574 3.38583e-08 0)
(1.09574 -1.7132e-08 0)
(1.09574 -3.38614e-08 0)
(1.09701 1.70597e-08 0)
(1.09701 3.32191e-08 0)
(1.09701 -1.70543e-08 0)
(1.09701 -3.32221e-08 0)
(1.09821 1.6577e-08 0)
(1.09821 3.21699e-08 0)
(1.09821 -1.6572e-08 0)
(1.09821 -3.21728e-08 0)
(1.09932 1.57672e-08 0)
(1.09932 3.07094e-08 0)
(1.09932 -1.57626e-08 0)
(1.09932 -3.07121e-08 0)
(1.10035 1.44511e-08 0)
(1.10035 2.88517e-08 0)
(1.10035 -1.4447e-08 0)
(1.10035 -2.88542e-08 0)
(1.1013 1.28075e-08 0)
(1.1013 2.65383e-08 0)
(1.1013 -1.28038e-08 0)
(1.1013 -2.65407e-08 0)
(1.10215 1.10799e-08 0)
(1.10215 2.39217e-08 0)
(1.10215 -1.10765e-08 0)
(1.10215 -2.39238e-08 0)
(1.10292 9.29316e-09 0)
(1.10292 2.10277e-08 0)
(1.10292 -9.29027e-09 0)
(1.10292 -2.10296e-08 0)
(1.10358 7.67877e-09 0)
(1.10358 1.80221e-08 0)
(1.10358 -7.67634e-09 0)
(1.10358 -1.80237e-08 0)
(1.10415 6.2201e-09 0)
(1.10415 1.49398e-08 0)
(1.10415 -6.21813e-09 0)
(1.10415 -1.49412e-08 0)
(1.10461 4.78295e-09 0)
(1.10461 1.17611e-08 0)
(1.10461 -4.78145e-09 0)
(1.10461 -1.17623e-08 0)
(1.10496 3.40633e-09 0)
(1.10496 8.47893e-09 0)
(1.10496 -3.40534e-09 0)
(1.10496 -8.47975e-09 0)
(1.1052 2.0212e-09 0)
(1.1052 5.11274e-09 0)
(1.1052 -2.02067e-09 0)
(1.1052 -5.1132e-09 0)
(1.10532 6.76521e-10 0)
(1.10533 1.70857e-09 0)
(1.10533 -6.76391e-10 0)
(1.10532 -1.70871e-09 0)
)
;

boundaryField
{
    inlet
    {
        type            cyclic;
    }
    outlet
    {
        type            cyclic;
    }
    fixedWalls-bottom
    {
        type            noSlip;
    }
    fixedWalls-top
    {
        type            symmetry;
    }
    frontAndBack
    {
        type            empty;
    }
}


// ************************************************************************* //
