/*--------------------------------*- C++ -*----------------------------------*\
  =========                 |
  \\      /  F ield         | OpenFOAM: The Open Source CFD Toolbox
   \\    /   O peration     | Website:  https://openfoam.org
    \\  /    A nd           | Version:  10
     \\/     M anipulation  |
\*---------------------------------------------------------------------------*/
FoamFile
{
    format      ascii;
    class       volScalarField;
    location    "2243";
    object      omega;
}
// * * * * * * * * * * * * * * * * * * * * * * * * * * * * * * * * * * * * * //

dimensions      [0 0 -1 0 0 0 0];

internalField   nonuniform List<scalar> 
400
(
108583
108583
108583
108583
18572.8
18572.8
18572.8
18572.8
6247.28
6247.32
6247.32
6247.33
2934.54
2934.56
2934.56
2934.56
1659.78
1659.79
1659.78
1659.78
1052.86
1052.87
1052.86
1052.85
721.137
721.152
721.134
721.122
521.571
521.593
521.571
521.553
392.738
392.767
392.742
392.716
304.904
304.94
304.911
304.878
242.309
242.353
242.322
242.28
195.99
196.042
196.009
195.961
160.563
160.625
160.591
160.536
132.66
132.731
132.698
132.639
110.111
110.193
110.161
110.099
91.4971
91.5883
91.5583
91.496
75.8784
75.9769
75.9496
75.8899
62.6294
62.7344
62.7102
62.6535
51.3329
51.4423
51.4216
51.3682
41.7034
41.8141
41.7974
41.7472
33.5355
33.6442
33.6318
33.5842
26.6698
26.7731
26.7655
26.7193
20.9702
21.0647
21.0627
21.0165
16.3114
16.3939
16.3991
16.3506
12.5671
12.6362
12.6473
12.5979
9.60003
9.65604
9.67181
9.62281
7.27724
7.32131
7.34015
7.29327
5.48206
5.51603
5.5362
5.49288
4.11205
4.13793
4.15787
4.11912
3.07855
3.09828
3.11668
3.08307
2.30616
2.32148
2.33736
2.30907
1.73185
1.74428
1.75689
1.73376
1.30327
1.31418
1.32296
1.30452
0.986072
0.996118
1.00071
0.987055
0.755447
0.765096
0.76552
0.756472
0.590817
0.599161
0.597475
0.592067
0.47563
0.482742
0.480326
0.477183
0.396923
0.402989
0.40058
0.398978
0.344763
0.350026
0.348108
0.347603
0.31194
0.316414
0.315455
0.315433
0.293113
0.296646
0.296469
0.29713
0.284295
0.286707
0.287409
0.288825
0.28273
0.284434
0.285848
0.287699
0.28658
0.287774
0.289735
0.292045
0.29476
0.295706
0.297901
0.300875
0.306843
0.307636
0.309874
0.313898
0.322362
0.323129
0.32518
0.330574
0.340853
0.341705
0.343385
0.350565
0.362097
0.363186
0.364396
0.373702
0.385957
0.387525
0.388337
0.399942
0.412274
0.414793
0.415505
0.429298
0.440627
0.445128
0.445742
0.461924
0.472738
0.478078
0.478927
0.497779
0.507672
0.513959
0.514877
0.536539
0.545024
0.552285
0.553294
0.577519
0.583907
0.592007
0.593328
0.619704
0.623129
0.631879
0.633693
0.661769
0.661586
0.670666
0.673101
0.702789
0.699233
0.708247
0.711409
0.742816
0.736435
0.744959
0.748918
0.78164
0.772722
0.780333
0.784721
0.81827
0.807606
0.813908
0.818497
0.852905
0.842609
0.846986
0.852256
0.887723
0.877956
0.884317
0.889633
0.926423
0.921132
0.930771
0.935183
0.973377
0.978589
0.992756
0.994642
1.03413
1.0464
1.06442
1.06364
1.10335
1.13667
1.15784
1.15637
1.19705
1.27223
1.29577
1.29469
1.33532
1.46835
1.49066
1.48994
1.52796
1.76797
1.78268
1.78188
1.81838
2.30211
2.30733
2.30378
2.34493
2.99323
3.00944
3.00342
3.05808
3.74039
3.76089
3.76796
3.8416
4.59093
4.61927
4.64632
4.74115
5.67493
5.70173
5.75515
5.87162
7.14694
7.19234
7.2386
7.38192
9.14342
9.2134
9.23605
9.4048
11.6701
11.7655
11.7489
11.9324
14.5424
14.6155
14.5897
14.7537
17.3825
17.3873
17.357
17.4738
19.8343
19.7593
19.7137
19.7864
21.8273
21.6908
21.6219
21.6643
23.4476
23.2724
23.1881
23.2123
24.8296
24.6236
24.5265
24.5412
26.0796
25.847
25.7412
25.7519
27.2445
26.9948
26.8904
26.9001
28.3326
28.0737
27.9806
27.9902
29.3269
29.0654
28.9905
28.9995
30.2015
29.9427
29.888
29.8959
30.933
30.6825
30.6471
30.6534
31.5001
31.2633
31.2451
31.2496
31.8858
31.6668
31.6639
31.666
32.0841
31.8845
31.8954
31.8937
32.1027
31.9205
31.9441
31.9361
31.9633
31.794
31.8279
31.812
31.7017
31.5406
31.5814
31.5574
31.367
31.2101
31.2541
31.2236
31.021
30.8659
30.9104
30.876
30.7378
30.5847
30.6283
30.5931
)
;

boundaryField
{
    inlet
    {
        type            cyclic;
    }
    outlet
    {
        type            cyclic;
    }
    fixedWalls-bottom
    {
        beta1           0.075;
        blended         0;
        type            omegaWallFunction;
        value           uniform 108583;
    }
    fixedWalls-top
    {
        type            symmetry;
    }
    frontAndBack
    {
        type            empty;
    }
}


// ************************************************************************* //
