/*--------------------------------*- C++ -*----------------------------------*\
  =========                 |
  \\      /  F ield         | OpenFOAM: The Open Source CFD Toolbox
   \\    /   O peration     | Website:  https://openfoam.org
    \\  /    A nd           | Version:  10
     \\/     M anipulation  |
\*---------------------------------------------------------------------------*/
FoamFile
{
    format      ascii;
    class       volScalarField;
    location    "2243";
    object      p;
}
// * * * * * * * * * * * * * * * * * * * * * * * * * * * * * * * * * * * * * //

dimensions      [0 2 -2 0 0 0 0];

internalField   nonuniform List<scalar> 
400
(
-9.4677e-11
-4.9096e-06
-8.47847e-06
-3.56998e-06
1.50008e-10
-4.88998e-06
-8.47879e-06
-3.5896e-06
7.94253e-10
-4.86714e-06
-8.47949e-06
-3.61244e-06
1.82147e-09
-4.84472e-06
-8.48057e-06
-3.63486e-06
3.26502e-09
-4.8225e-06
-8.48203e-06
-3.65707e-06
5.08074e-09
-4.80009e-06
-8.48384e-06
-3.67949e-06
7.23371e-09
-4.7774e-06
-8.48598e-06
-3.70217e-06
9.67288e-09
-4.75448e-06
-8.48842e-06
-3.72509e-06
1.23498e-08
-4.73135e-06
-8.49109e-06
-3.74823e-06
1.51845e-08
-4.70804e-06
-8.49392e-06
-3.77154e-06
1.8082e-08
-4.68459e-06
-8.49681e-06
-3.79498e-06
2.08982e-08
-4.66108e-06
-8.49962e-06
-3.81849e-06
2.34496e-08
-4.63761e-06
-8.50217e-06
-3.84196e-06
2.54715e-08
-4.61434e-06
-8.50419e-06
-3.86523e-06
2.66148e-08
-4.59153e-06
-8.50533e-06
-3.88805e-06
2.63971e-08
-4.56959e-06
-8.50511e-06
-3.90998e-06
2.41869e-08
-4.54921e-06
-8.5029e-06
-3.93037e-06
1.90971e-08
-4.53151e-06
-8.4978e-06
-3.94809e-06
9.88107e-09
-4.51842e-06
-8.48858e-06
-3.96118e-06
-5.2458e-09
-4.5132e-06
-8.47344e-06
-3.96643e-06
-2.87922e-08
-4.52095e-06
-8.44988e-06
-3.9587e-06
-6.44649e-08
-4.54979e-06
-8.41417e-06
-3.92992e-06
-1.19092e-07
-4.61505e-06
-8.35948e-06
-3.86473e-06
-2.08182e-07
-4.75169e-06
-8.27031e-06
-3.72817e-06
-3.59266e-07
-5.02209e-06
-8.11919e-06
-3.45778e-06
-5.79279e-07
-5.44805e-06
-7.89927e-06
-3.03168e-06
-7.43121e-07
-5.76962e-06
-7.73553e-06
-2.70998e-06
-7.99115e-07
-5.86897e-06
-7.67957e-06
-2.61059e-06
-8.3783e-07
-5.92612e-06
-7.64084e-06
-2.55343e-06
-8.84628e-07
-5.99054e-06
-7.59403e-06
-2.48901e-06
-9.37146e-07
-6.05485e-06
-7.5415e-06
-2.4247e-06
-9.92418e-07
-6.11002e-06
-7.48622e-06
-2.36952e-06
-1.05021e-06
-6.15253e-06
-7.42844e-06
-2.32701e-06
-1.11091e-06
-6.18036e-06
-7.36775e-06
-2.29917e-06
-1.17455e-06
-6.1914e-06
-7.30413e-06
-2.28813e-06
-1.24143e-06
-6.18412e-06
-7.23728e-06
-2.2954e-06
-1.31483e-06
-6.16015e-06
-7.1639e-06
-2.31937e-06
-1.40094e-06
-6.12362e-06
-7.07782e-06
-2.35589e-06
-1.50581e-06
-6.07826e-06
-6.97296e-06
-2.40125e-06
-1.63453e-06
-6.02711e-06
-6.84425e-06
-2.45241e-06
-1.79115e-06
-5.97305e-06
-6.68763e-06
-2.50647e-06
-1.97866e-06
-5.91892e-06
-6.50012e-06
-2.5606e-06
-2.19865e-06
-5.86726e-06
-6.28012e-06
-2.61225e-06
-2.4513e-06
-5.82025e-06
-6.02746e-06
-2.65926e-06
-2.73553e-06
-5.77967e-06
-5.74322e-06
-2.69981e-06
-3.04907e-06
-5.74694e-06
-5.42968e-06
-2.73251e-06
-3.38807e-06
-5.72291e-06
-5.09067e-06
-2.75648e-06
-3.74663e-06
-5.70774e-06
-4.73212e-06
-2.77159e-06
-4.11584e-06
-5.7007e-06
-4.36292e-06
-2.77854e-06
-4.48243e-06
-5.70049e-06
-3.99635e-06
-2.77869e-06
-4.82743e-06
-5.7059e-06
-3.65137e-06
-2.77326e-06
-5.12936e-06
-5.71624e-06
-3.34946e-06
-2.76293e-06
-5.37697e-06
-5.72949e-06
-3.10186e-06
-2.74974e-06
-5.57252e-06
-5.74171e-06
-2.90631e-06
-2.73759e-06
-5.72231e-06
-5.74917e-06
-2.75651e-06
-2.73024e-06
-5.83317e-06
-5.74909e-06
-2.64563e-06
-2.73042e-06
-5.91218e-06
-5.73978e-06
-2.56661e-06
-2.73983e-06
-5.96673e-06
-5.72044e-06
-2.51206e-06
-2.75926e-06
-6.00448e-06
-5.69095e-06
-2.4743e-06
-2.78883e-06
-6.03361e-06
-5.65153e-06
-2.44516e-06
-2.8283e-06
-6.06292e-06
-5.60249e-06
-2.41585e-06
-2.87736e-06
-6.1019e-06
-5.54401e-06
-2.37687e-06
-2.93582e-06
-6.1607e-06
-5.47586e-06
-2.31806e-06
-3.00388e-06
-6.25036e-06
-5.39683e-06
-2.22839e-06
-3.08275e-06
-6.3828e-06
-5.30349e-06
-2.09592e-06
-3.17584e-06
-6.57011e-06
-5.18895e-06
-1.90854e-06
-3.29002e-06
-6.82256e-06
-5.04202e-06
-1.65592e-06
-3.43648e-06
-7.14848e-06
-4.84605e-06
-1.32951e-06
-3.63191e-06
-7.56535e-06
-4.57345e-06
-9.11351e-07
-3.90411e-06
-8.11511e-06
-4.17674e-06
-3.58902e-07
-4.30104e-06
-8.77217e-06
-3.61432e-06
3.01035e-07
-4.86447e-06
-9.02192e-06
-3.01119e-06
5.4808e-07
-5.46746e-06
-7.50478e-06
-2.88819e-06
-9.78203e-07
-5.5871e-06
-4.39785e-06
-3.48916e-06
-4.0886e-06
-4.98446e-06
-1.18869e-06
-4.54854e-06
-7.293e-06
-3.92686e-06
1.57086e-06
-5.71951e-06
-1.00464e-05
-2.75851e-06
3.56884e-06
-6.64811e-06
-1.20421e-05
-1.83097e-06
4.69708e-06
-7.20581e-06
-1.31719e-05
-1.273e-06
5.17795e-06
-7.46544e-06
-1.36551e-05
-1.01311e-06
5.30389e-06
-7.54301e-06
-1.37825e-05
-9.3562e-07
5.27296e-06
-7.51855e-06
-1.37521e-05
-9.60307e-07
5.17164e-06
-7.43984e-06
-1.36509e-05
-1.0392e-06
5.04043e-06
-7.34468e-06
-1.35195e-05
-1.13446e-06
4.90092e-06
-7.25705e-06
-1.33799e-05
-1.22212e-06
4.76402e-06
-7.18513e-06
-1.32429e-05
-1.29403e-06
4.63395e-06
-7.12838e-06
-1.31128e-05
-1.35077e-06
4.51242e-06
-7.08495e-06
-1.29913e-05
-1.39419e-06
4.39992e-06
-7.05285e-06
-1.28788e-05
-1.42627e-06
4.29611e-06
-7.02967e-06
-1.2775e-05
-1.44945e-06
4.20038e-06
-7.01301e-06
-1.26793e-05
-1.4661e-06
4.11227e-06
-7.00096e-06
-1.25912e-05
-1.47815e-06
4.03164e-06
-6.99217e-06
-1.25106e-05
-1.48694e-06
3.95854e-06
-6.98572e-06
-1.24375e-05
-1.49338e-06
3.8932e-06
-6.981e-06
-1.23722e-05
-1.4981e-06
3.83592e-06
-6.97758e-06
-1.23149e-05
-1.50152e-06
3.78704e-06
-6.97517e-06
-1.2266e-05
-1.50393e-06
3.74694e-06
-6.97352e-06
-1.22259e-05
-1.50557e-06
3.71619e-06
-6.97244e-06
-1.21952e-05
-1.50666e-06
3.69584e-06
-6.97187e-06
-1.21748e-05
-1.50723e-06
3.68632e-06
-6.97206e-06
-1.21653e-05
-1.50703e-06
)
;

boundaryField
{
    inlet
    {
        type            cyclic;
    }
    outlet
    {
        type            cyclic;
    }
    fixedWalls-bottom
    {
        type            zeroGradient;
    }
    fixedWalls-top
    {
        type            symmetry;
    }
    frontAndBack
    {
        type            empty;
    }
}


// ************************************************************************* //
