/*--------------------------------*- C++ -*----------------------------------*\
  =========                 |
  \\      /  F ield         | OpenFOAM: The Open Source CFD Toolbox
   \\    /   O peration     | Website:  https://openfoam.org
    \\  /    A nd           | Version:  10
     \\/     M anipulation  |
\*---------------------------------------------------------------------------*/
FoamFile
{
    format      ascii;
    class       volVectorField;
    location    "2243";
    object      U;
}
// * * * * * * * * * * * * * * * * * * * * * * * * * * * * * * * * * * * * * //

dimensions      [0 1 -1 0 0 0 0];

internalField   nonuniform List<vector> 
400
(
(0.00957536 -1.53134e-11 0)
(0.00957464 9.45633e-10 0)
(0.00957388 6.31654e-11 0)
(0.00957464 -9.46051e-10 0)
(0.0287727 8.41109e-11 0)
(0.0287705 1.42854e-08 0)
(0.0287683 1.01028e-10 0)
(0.0287706 -1.42859e-08 0)
(0.0481498 3.53709e-10 0)
(0.0481461 4.18294e-08 0)
(0.0481424 -1.99552e-10 0)
(0.0481463 -4.18311e-08 0)
(0.0677064 1.26879e-09 0)
(0.0677012 8.46746e-08 0)
(0.0676959 -1.11472e-09 0)
(0.0677015 -8.46771e-08 0)
(0.0874422 3.10251e-09 0)
(0.0874353 1.43079e-07 0)
(0.0874286 -2.95246e-09 0)
(0.0874359 -1.43082e-07 0)
(0.107357 6.20075e-09 0)
(0.107348 2.1755e-07 0)
(0.10734 -6.054e-09 0)
(0.107349 -2.17554e-07 0)
(0.12745 1.09502e-08 0)
(0.127439 3.08749e-07 0)
(0.12743 -1.08052e-08 0)
(0.127441 -3.08755e-07 0)
(0.14772 1.77902e-08 0)
(0.147708 4.17381e-07 0)
(0.147697 -1.7646e-08 0)
(0.147709 -4.17387e-07 0)
(0.168166 2.72234e-08 0)
(0.168153 5.44172e-07 0)
(0.16814 -2.70799e-08 0)
(0.168155 -5.44179e-07 0)
(0.188788 3.98257e-08 0)
(0.188772 6.89879e-07 0)
(0.188758 -3.96829e-08 0)
(0.188775 -6.89887e-07 0)
(0.209582 5.62556e-08 0)
(0.209564 8.55288e-07 0)
(0.209549 -5.61136e-08 0)
(0.209568 -8.55297e-07 0)
(0.230546 7.72628e-08 0)
(0.230526 1.04121e-06 0)
(0.230509 -7.71219e-08 0)
(0.23053 -1.04122e-06 0)
(0.251675 1.03695e-07 0)
(0.251653 1.24847e-06 0)
(0.251635 -1.03555e-07 0)
(0.251659 -1.24848e-06 0)
(0.272965 1.36498e-07 0)
(0.272941 1.47786e-06 0)
(0.272921 -1.36359e-07 0)
(0.272947 -1.47787e-06 0)
(0.294407 1.7671e-07 0)
(0.29438 1.73013e-06 0)
(0.29436 -1.76573e-07 0)
(0.294388 -1.73015e-06 0)
(0.31599 2.25447e-07 0)
(0.315961 2.00591e-06 0)
(0.31594 -2.2531e-07 0)
(0.31597 -2.00592e-06 0)
(0.337699 2.83867e-07 0)
(0.337668 2.30555e-06 0)
(0.337645 -2.83731e-07 0)
(0.337679 -2.30557e-06 0)
(0.359512 3.53103e-07 0)
(0.359478 2.62899e-06 0)
(0.359455 -3.52969e-07 0)
(0.359491 -2.629e-06 0)
(0.381398 4.3415e-07 0)
(0.381362 2.97534e-06 0)
(0.381338 -4.34018e-07 0)
(0.381377 -2.97536e-06 0)
(0.403311 5.27654e-07 0)
(0.403274 3.34237e-06 0)
(0.403249 -5.27522e-07 0)
(0.403291 -3.34239e-06 0)
(0.42519 6.33614e-07 0)
(0.425151 3.7257e-06 0)
(0.425126 -6.33484e-07 0)
(0.42517 -3.72571e-06 0)
(0.446943 7.50957e-07 0)
(0.446905 4.1177e-06 0)
(0.44688 -7.50829e-07 0)
(0.446925 -4.11772e-06 0)
(0.468446 8.76581e-07 0)
(0.468412 4.50551e-06 0)
(0.468387 -8.76452e-07 0)
(0.468432 -4.50553e-06 0)
(0.489532 1.00241e-06 0)
(0.489504 4.86468e-06 0)
(0.489481 -1.00228e-06 0)
(0.489523 -4.86471e-06 0)
(0.509984 1.11012e-06 0)
(0.509968 5.14857e-06 0)
(0.509948 -1.10999e-06 0)
(0.509983 -5.1486e-06 0)
(0.529543 1.17277e-06 0)
(0.529543 5.29169e-06 0)
(0.529529 -1.17265e-06 0)
(0.529551 -5.29171e-06 0)
(0.54838 1.22175e-06 0)
(0.54839 5.35396e-06 0)
(0.548381 -1.22163e-06 0)
(0.548394 -5.35398e-06 0)
(0.566821 1.25092e-06 0)
(0.56683 5.31883e-06 0)
(0.566825 -1.25079e-06 0)
(0.566837 -5.31886e-06 0)
(0.584906 1.30394e-06 0)
(0.584915 5.27647e-06 0)
(0.584912 -1.30382e-06 0)
(0.584925 -5.2765e-06 0)
(0.602637 1.38174e-06 0)
(0.602644 5.2309e-06 0)
(0.602644 -1.38162e-06 0)
(0.602657 -5.23093e-06 0)
(0.620015 1.48103e-06 0)
(0.620021 5.1779e-06 0)
(0.620023 -1.48091e-06 0)
(0.620036 -5.17793e-06 0)
(0.637045 1.6005e-06 0)
(0.63705 5.11782e-06 0)
(0.637054 -1.60038e-06 0)
(0.637068 -5.11785e-06 0)
(0.653735 1.73979e-06 0)
(0.653738 5.05355e-06 0)
(0.653744 -1.73967e-06 0)
(0.653759 -5.05357e-06 0)
(0.670095 1.8986e-06 0)
(0.670096 4.98844e-06 0)
(0.670104 -1.89848e-06 0)
(0.670119 -4.98847e-06 0)
(0.686136 2.07667e-06 0)
(0.686136 4.92611e-06 0)
(0.686144 -2.07655e-06 0)
(0.686161 -4.92614e-06 0)
(0.701872 2.27391e-06 0)
(0.701869 4.87039e-06 0)
(0.701879 -2.2738e-06 0)
(0.701896 -4.87042e-06 0)
(0.717313 2.48949e-06 0)
(0.717307 4.82437e-06 0)
(0.717318 -2.48937e-06 0)
(0.717337 -4.8244e-06 0)
(0.732468 2.72161e-06 0)
(0.73246 4.79027e-06 0)
(0.732471 -2.7215e-06 0)
(0.732491 -4.7903e-06 0)
(0.747342 2.96672e-06 0)
(0.747332 4.7686e-06 0)
(0.747344 -2.9666e-06 0)
(0.747363 -4.76863e-06 0)
(0.761938 3.21972e-06 0)
(0.761926 4.75854e-06 0)
(0.761939 -3.2196e-06 0)
(0.761958 -4.75857e-06 0)
(0.776259 3.47439e-06 0)
(0.776246 4.7581e-06 0)
(0.776258 -3.47428e-06 0)
(0.776277 -4.75813e-06 0)
(0.790305 3.72375e-06 0)
(0.790291 4.76435e-06 0)
(0.790304 -3.72364e-06 0)
(0.790321 -4.76438e-06 0)
(0.804078 3.9604e-06 0)
(0.804064 4.77354e-06 0)
(0.804077 -3.96029e-06 0)
(0.804091 -4.77357e-06 0)
(0.817579 4.17689e-06 0)
(0.817566 4.78126e-06 0)
(0.817578 -4.17678e-06 0)
(0.81759 -4.78129e-06 0)
(0.83081 4.36603e-06 0)
(0.830798 4.78274e-06 0)
(0.83081 -4.36592e-06 0)
(0.830818 -4.78277e-06 0)
(0.843774 4.5212e-06 0)
(0.843764 4.77299e-06 0)
(0.843776 -4.52109e-06 0)
(0.843779 -4.77303e-06 0)
(0.856474 4.63656e-06 0)
(0.856466 4.74709e-06 0)
(0.856478 -4.63646e-06 0)
(0.856477 -4.74713e-06 0)
(0.868917 4.70751e-06 0)
(0.868911 4.70041e-06 0)
(0.868923 -4.7074e-06 0)
(0.868916 -4.70045e-06 0)
(0.881107 4.73115e-06 0)
(0.881104 4.62891e-06 0)
(0.881117 -4.73105e-06 0)
(0.881104 -4.62894e-06 0)
(0.893055 4.7073e-06 0)
(0.893054 4.52935e-06 0)
(0.893067 -4.70719e-06 0)
(0.893049 -4.52938e-06 0)
(0.90477 4.63983e-06 0)
(0.904771 4.39929e-06 0)
(0.904786 -4.63973e-06 0)
(0.904762 -4.39932e-06 0)
(0.916266 4.53778e-06 0)
(0.916269 4.23686e-06 0)
(0.916285 -4.53767e-06 0)
(0.916256 -4.2369e-06 0)
(0.927556 4.41261e-06 0)
(0.92756 4.04111e-06 0)
(0.927578 -4.4125e-06 0)
(0.927547 -4.04115e-06 0)
(0.938655 4.27724e-06 0)
(0.938661 3.81172e-06 0)
(0.93868 -4.27714e-06 0)
(0.938648 -3.81176e-06 0)
(0.949578 4.14235e-06 0)
(0.949586 3.54933e-06 0)
(0.949607 -4.14225e-06 0)
(0.949573 -3.54936e-06 0)
(0.96034 4.01583e-06 0)
(0.960349 3.25515e-06 0)
(0.960371 -4.01573e-06 0)
(0.960337 -3.25519e-06 0)
(0.970955 3.90286e-06 0)
(0.970965 2.93061e-06 0)
(0.970989 -3.90276e-06 0)
(0.970955 -2.93064e-06 0)
(0.981437 3.80592e-06 0)
(0.981448 2.57684e-06 0)
(0.981473 -3.80582e-06 0)
(0.98144 -2.57687e-06 0)
(0.991801 3.72473e-06 0)
(0.991813 2.19449e-06 0)
(0.991839 -3.72463e-06 0)
(0.991806 -2.19452e-06 0)
(1.00206 3.65597e-06 0)
(1.00207 1.78348e-06 0)
(1.0021 -3.65587e-06 0)
(1.00207 -1.78352e-06 0)
(1.01223 3.593e-06 0)
(1.01225 1.34297e-06 0)
(1.01227 -3.5929e-06 0)
(1.01224 -1.343e-06 0)
(1.02233 3.52534e-06 0)
(1.02235 8.71364e-07 0)
(1.02237 -3.52524e-06 0)
(1.02234 -8.71399e-07 0)
(1.03237 3.43801e-06 0)
(1.03239 3.66572e-07 0)
(1.03242 -3.43792e-06 0)
(1.03238 -3.66607e-07 0)
(1.04237 3.31061e-06 0)
(1.04239 -1.73586e-07 0)
(1.04242 -3.31052e-06 0)
(1.04238 1.73551e-07 0)
(1.05235 3.11611e-06 0)
(1.05237 -7.50404e-07 0)
(1.0524 -3.11602e-06 0)
(1.05235 7.50369e-07 0)
(1.06232 2.81946e-06 0)
(1.06235 -1.36269e-06 0)
(1.06238 -2.81937e-06 0)
(1.06232 1.36266e-06 0)
(1.07232 2.3764e-06 0)
(1.07235 -2.00435e-06 0)
(1.07238 -2.37633e-06 0)
(1.0723 2.00432e-06 0)
(1.08236 1.73245e-06 0)
(1.08239 -2.66089e-06 0)
(1.08241 -1.73242e-06 0)
(1.08232 2.66088e-06 0)
(1.09247 8.18557e-07 0)
(1.0925 -3.3033e-06 0)
(1.09252 -8.18503e-07 0)
(1.09241 3.30331e-06 0)
(1.10267 -4.63721e-07 0)
(1.10271 -3.87547e-06 0)
(1.10271 4.64044e-07 0)
(1.10258 3.87542e-06 0)
(1.11302 -2.24647e-06 0)
(1.11304 -4.27947e-06 0)
(1.11304 2.2472e-06 0)
(1.11288 4.27915e-06 0)
(1.12356 -4.56204e-06 0)
(1.12357 -4.40424e-06 0)
(1.12356 4.56147e-06 0)
(1.12338 4.404e-06 0)
(1.13452 -6.85595e-06 0)
(1.13453 -4.31052e-06 0)
(1.1345 6.85486e-06 0)
(1.13434 4.31089e-06 0)
(1.14644 -8.94256e-06 0)
(1.14646 -4.0064e-06 0)
(1.14642 8.94292e-06 0)
(1.14634 4.00639e-06 0)
(1.15971 -1.0007e-05 0)
(1.15972 -3.72554e-06 0)
(1.15969 1.00079e-05 0)
(1.15969 3.72559e-06 0)
(1.1742 -9.84385e-06 0)
(1.1742 -3.55667e-06 0)
(1.17419 9.84431e-06 0)
(1.17425 3.55672e-06 0)
(1.18979 -8.63954e-06 0)
(1.18978 -3.49601e-06 0)
(1.18978 8.63937e-06 0)
(1.1899 3.49604e-06 0)
(1.2063 -6.71668e-06 0)
(1.20628 -3.44026e-06 0)
(1.20629 6.71648e-06 0)
(1.20643 3.44017e-06 0)
(1.22345 -4.57606e-06 0)
(1.22343 -3.25665e-06 0)
(1.22343 4.57615e-06 0)
(1.22358 3.25647e-06 0)
(1.24093 -2.60117e-06 0)
(1.24091 -2.89196e-06 0)
(1.2409 2.60138e-06 0)
(1.24104 2.89181e-06 0)
(1.25844 -1.00304e-06 0)
(1.25841 -2.36583e-06 0)
(1.2584 1.00322e-06 0)
(1.25851 2.36573e-06 0)
(1.27575 1.72613e-07 0)
(1.27572 -1.74353e-06 0)
(1.2757 -1.72458e-07 0)
(1.27579 1.74346e-06 0)
(1.29269 9.52885e-07 0)
(1.29267 -1.09321e-06 0)
(1.29265 -9.52764e-07 0)
(1.29272 1.09315e-06 0)
(1.30917 1.40139e-06 0)
(1.30916 -4.76848e-07 0)
(1.30913 -1.4013e-06 0)
(1.30918 4.76791e-07 0)
(1.3251 1.59396e-06 0)
(1.32509 5.91294e-08 0)
(1.32507 -1.59388e-06 0)
(1.3251 -5.91856e-08 0)
(1.34041 1.60567e-06 0)
(1.34041 4.87567e-07 0)
(1.34039 -1.60559e-06 0)
(1.34041 -4.87621e-07 0)
(1.35505 1.50157e-06 0)
(1.35505 8.00743e-07 0)
(1.35503 -1.5015e-06 0)
(1.35504 -8.00793e-07 0)
(1.36896 1.33352e-06 0)
(1.36896 1.00464e-06 0)
(1.36895 -1.33345e-06 0)
(1.36895 -1.00469e-06 0)
(1.38208 1.1399e-06 0)
(1.38209 1.1131e-06 0)
(1.38208 -1.13984e-06 0)
(1.38208 -1.11314e-06 0)
(1.39439 9.46535e-07 0)
(1.39439 1.14386e-06 0)
(1.39439 -9.46479e-07 0)
(1.39438 -1.1439e-06 0)
(1.40581 7.68745e-07 0)
(1.40582 1.11546e-06 0)
(1.40582 -7.68695e-07 0)
(1.40581 -1.1155e-06 0)
(1.41632 6.13886e-07 0)
(1.41632 1.04496e-06 0)
(1.41632 -6.13841e-07 0)
(1.41632 -1.04499e-06 0)
(1.42585 4.83817e-07 0)
(1.42586 9.46643e-07 0)
(1.42586 -4.83779e-07 0)
(1.42586 -9.46672e-07 0)
(1.43438 3.76991e-07 0)
(1.43438 8.3152e-07 0)
(1.43438 -3.76958e-07 0)
(1.43438 -8.31545e-07 0)
(1.44183 2.90037e-07 0)
(1.44184 7.07427e-07 0)
(1.44184 -2.9001e-07 0)
(1.44183 -7.07448e-07 0)
(1.44817 2.18865e-07 0)
(1.44818 5.79444e-07 0)
(1.44818 -2.18844e-07 0)
(1.44818 -5.7946e-07 0)
(1.45335 1.59341e-07 0)
(1.45336 4.50469e-07 0)
(1.45336 -1.59326e-07 0)
(1.45335 -4.50481e-07 0)
(1.45731 1.07794e-07 0)
(1.45732 3.21855e-07 0)
(1.45732 -1.07784e-07 0)
(1.45731 -3.21863e-07 0)
(1.46 6.163e-08 0)
(1.46 1.93542e-07 0)
(1.46001 -6.1628e-08 0)
(1.46 -1.93544e-07 0)
(1.46136 2.02432e-08 0)
(1.46136 6.47106e-08 0)
(1.46136 -2.0242e-08 0)
(1.46136 -6.47112e-08 0)
)
;

boundaryField
{
    inlet
    {
        type            cyclic;
    }
    outlet
    {
        type            cyclic;
    }
    fixedWalls-bottom
    {
        type            noSlip;
    }
    fixedWalls-top
    {
        type            symmetry;
    }
    frontAndBack
    {
        type            empty;
    }
}


// ************************************************************************* //
