/*--------------------------------*- C++ -*----------------------------------*\
  =========                 |
  \\      /  F ield         | OpenFOAM: The Open Source CFD Toolbox
   \\    /   O peration     | Website:  https://openfoam.org
    \\  /    A nd           | Version:  10
     \\/     M anipulation  |
\*---------------------------------------------------------------------------*/
FoamFile
{
    format      ascii;
    class       volScalarField;
    location    "2179";
    object      omega;
}
// * * * * * * * * * * * * * * * * * * * * * * * * * * * * * * * * * * * * * //

dimensions      [0 0 -1 0 0 0 0];

internalField   nonuniform List<scalar> 
400
(
96962.3
96962.3
96962.3
96962.3
16584.7
16584.6
16584.6
16584.6
5578.48
5578.45
5578.45
5578.46
2620.43
2620.41
2620.41
2620.41
1482.15
1482.14
1482.14
1482.14
940.21
940.21
940.198
940.203
643.991
643.998
643.981
643.981
465.778
465.791
465.771
465.765
350.731
350.752
350.728
350.714
272.316
272.345
272.318
272.296
216.478
216.517
216.487
216.456
175.23
175.279
175.247
175.208
143.774
143.833
143.801
143.753
119.101
119.17
119.138
119.085
99.2616
99.3414
99.3112
99.2525
82.9672
83.0562
83.0285
82.967
69.3514
69.4478
69.4232
69.3616
57.8261
57.9289
57.9081
57.8471
47.9921
48.0994
48.083
48.0232
39.5742
39.6834
39.672
39.6134
32.3778
32.4859
32.4802
32.4224
26.2588
26.3625
26.3635
26.3055
21.103
21.1991
21.2082
21.1483
16.8128
16.8976
16.9143
16.8528
13.2884
13.3599
13.384
13.3214
10.4256
10.4839
10.5137
10.4515
8.12702
8.17299
8.2066
8.1465
6.30416
6.33942
6.37472
6.31837
4.87574
4.9022
4.93724
4.88588
3.76848
3.78808
3.82125
3.77566
2.91764
2.93223
2.96225
2.92272
2.26697
2.27824
2.30421
2.27063
1.76836
1.77783
1.79916
1.77112
1.38112
1.39
1.40644
1.38342
1.08667
1.09536
1.10657
1.08891
0.867506
0.876259
0.882485
0.870066
0.708091
0.716992
0.718963
0.711339
0.595254
0.602755
0.603799
0.599489
0.518217
0.523724
0.526641
0.523702
0.468881
0.472939
0.47689
0.475543
0.440767
0.443658
0.448148
0.448755
0.429527
0.431531
0.43556
0.439039
0.432837
0.434219
0.437741
0.444125
0.450883
0.451769
0.454431
0.464829
0.479437
0.48003
0.482251
0.496173
0.516374
0.516977
0.519368
0.536762
0.559866
0.560951
0.564131
0.584804
0.60909
0.610938
0.615205
0.639219
0.663241
0.665701
0.671462
0.698754
0.721674
0.723931
0.732021
0.76228
0.783738
0.785671
0.795815
0.829095
0.848721
0.85074
0.862394
0.898449
0.91558
0.918066
0.930905
0.968869
0.982334
0.985128
0.99917
1.03798
1.04678
1.04937
1.06422
1.10352
1.10784
1.10955
1.12416
1.16429
1.16508
1.16553
1.17914
1.22052
1.21882
1.2178
1.23092
1.27343
1.27034
1.2683
1.28167
1.3247
1.32216
1.31968
1.33346
1.37693
1.38046
1.37807
1.39184
1.43509
1.44855
1.44583
1.45838
1.50035
1.51826
1.51698
1.52673
1.5667
1.59482
1.59682
1.6032
1.64155
1.69106
1.69741
1.69998
1.73574
1.81109
1.82197
1.82085
1.85183
1.94993
1.96398
1.96143
1.9865
2.14864
2.16611
2.16377
2.1826
2.52513
2.54862
2.54794
2.56101
3.16558
3.19913
3.20125
3.21457
4.03238
4.08104
4.08588
4.10836
5.10064
5.16626
5.1747
5.21279
6.3667
6.44559
6.46238
6.51567
7.83986
7.9202
7.95659
8.02105
9.56469
9.65585
9.69187
9.77071
11.5419
11.6355
11.6711
11.7595
13.7116
13.799
13.8288
13.9217
15.9909
16.0701
16.082
16.1699
18.2674
18.3315
18.3145
18.3948
20.4094
20.4533
20.4058
20.4728
22.3529
22.377
22.2996
22.3499
24.1028
24.109
24.0052
24.0399
25.6687
25.6579
25.5357
25.559
27.0697
27.0421
26.9096
26.9253
28.3421
28.2975
28.163
28.1737
29.5016
29.4393
29.3107
29.3182
30.5513
30.4723
30.3549
30.36
31.5019
31.4089
31.3063
31.3092
32.3508
32.2483
32.1639
32.1661
33.0817
32.9759
32.9115
32.9147
33.6755
33.5726
33.5281
33.5339
34.1169
34.0223
33.9962
34.0056
34.398
34.3152
34.3055
34.3183
34.5193
34.4498
34.4548
34.4692
34.4911
34.4352
34.4539
34.4664
34.3334
34.2912
34.3216
34.3291
34.077
34.0484
34.0876
34.0861
33.7674
33.748
33.793
33.7842
33.4527
33.4395
33.4876
33.4745
33.1852
33.1754
33.2247
33.2103
)
;

boundaryField
{
    inlet
    {
        type            cyclic;
    }
    outlet
    {
        type            cyclic;
    }
    fixedWalls-bottom
    {
        beta1           0.075;
        blended         0;
        type            omegaWallFunction;
        value           uniform 96962.3;
    }
    fixedWalls-top
    {
        type            symmetry;
    }
    frontAndBack
    {
        type            empty;
    }
}


// ************************************************************************* //
