/*--------------------------------*- C++ -*----------------------------------*\
  =========                 |
  \\      /  F ield         | OpenFOAM: The Open Source CFD Toolbox
   \\    /   O peration     | Website:  https://openfoam.org
    \\  /    A nd           | Version:  10
     \\/     M anipulation  |
\*---------------------------------------------------------------------------*/
FoamFile
{
    format      ascii;
    class       volSymmTensorField;
    location    "2179";
    object      R;
}
// * * * * * * * * * * * * * * * * * * * * * * * * * * * * * * * * * * * * * //

dimensions      [0 2 -2 0 0 0 0];

internalField   nonuniform List<symmTensor> 
400
(
(1.06894e-08 -6.91259e-13 -0 1.06894e-08 -0 1.06894e-08)
(1.06629e-08 -6.89474e-13 -0 1.06629e-08 -0 1.06629e-08)
(1.06537e-08 -6.88818e-13 -0 1.06537e-08 -0 1.06537e-08)
(1.06777e-08 -6.90446e-13 -0 1.06777e-08 -0 1.06777e-08)
(3.20717e-07 -1.20693e-10 -0 3.20717e-07 -0 3.20717e-07)
(3.19922e-07 -1.20382e-10 -0 3.19922e-07 -0 3.19922e-07)
(3.19646e-07 -1.20267e-10 -0 3.19646e-07 -0 3.19646e-07)
(3.20367e-07 -1.20552e-10 -0 3.20367e-07 -0 3.20367e-07)
(2.27132e-06 -2.52913e-09 -0 2.27132e-06 -0 2.27132e-06)
(2.26569e-06 -2.52261e-09 -0 2.26569e-06 -0 2.26569e-06)
(2.26374e-06 -2.52021e-09 -0 2.26374e-06 -0 2.26374e-06)
(2.26884e-06 -2.52617e-09 -0 2.26884e-06 -0 2.26884e-06)
(8.2578e-06 -1.94808e-08 -0 8.2578e-06 -0 8.2578e-06)
(8.2373e-06 -1.94305e-08 -0 8.2373e-06 -0 8.2373e-06)
(8.2302e-06 -1.94121e-08 -0 8.2302e-06 -0 8.2302e-06)
(8.24878e-06 -1.9458e-08 -0 8.24878e-06 -0 8.24878e-06)
(2.13686e-05 -8.86884e-08 -0 2.13686e-05 -0 2.13686e-05)
(2.13155e-05 -8.84588e-08 -0 2.13155e-05 -0 2.13155e-05)
(2.12971e-05 -8.83756e-08 -0 2.12971e-05 -0 2.12971e-05)
(2.13453e-05 -8.85848e-08 -0 2.13453e-05 -0 2.13453e-05)
(4.52605e-05 -2.94649e-07 -0 4.52605e-05 -0 4.52605e-05)
(4.51479e-05 -2.93883e-07 -0 4.51479e-05 -0 4.51479e-05)
(4.51089e-05 -2.9361e-07 -0 4.51089e-05 -0 4.51089e-05)
(4.5211e-05 -2.94306e-07 -0 4.5211e-05 -0 4.5211e-05)
(8.41291e-05 -7.95536e-07 -0 8.41291e-05 -0 8.41291e-05)
(8.39196e-05 -7.93459e-07 -0 8.39196e-05 -0 8.39196e-05)
(8.38471e-05 -7.9273e-07 -0 8.38471e-05 -0 8.38471e-05)
(8.4037e-05 -7.94618e-07 -0 8.4037e-05 -0 8.4037e-05)
(0.000142709 -1.8561e-06 -0 0.000142709 -0 0.000142709)
(0.000142354 -1.85121e-06 -0 0.000142354 -0 0.000142354)
(0.00014223 -1.84954e-06 -0 0.00014223 -0 0.00014223)
(0.000142553 -1.85398e-06 -0 0.000142553 -0 0.000142553)
(0.000226283 -3.88761e-06 -0 0.000226283 -0 0.000226283)
(0.000225719 -3.87724e-06 -0 0.000225719 -0 0.000225719)
(0.000225523 -3.87383e-06 -0 0.000225523 -0 0.000225523)
(0.000226035 -3.88325e-06 -0 0.000226035 -0 0.000226035)
(0.000340688 -7.4971e-06 -0 0.000340688 -0 0.000340688)
(0.000339839 -7.47673e-06 -0 0.000339839 -0 0.000339839)
(0.000339541 -7.47039e-06 -0 0.000339541 -0 0.000339541)
(0.000340312 -7.48889e-06 -0 0.000340312 -0 0.000340312)
(0.000492306 -1.35504e-05 -0 0.000492306 -0 0.000492306)
(0.000491082 -1.35126e-05 -0 0.000491082 -0 0.000491082)
(0.000490648 -1.35016e-05 -0 0.000490648 -0 0.000490648)
(0.000491761 -1.35359e-05 -0 0.000491761 -0 0.000491761)
(0.000688036 -2.32563e-05 -0 0.000688036 -0 0.000688036)
(0.000686332 -2.31894e-05 -0 0.000686331 -0 0.000686331)
(0.000685718 -2.31713e-05 -0 0.000685718 -0 0.000685718)
(0.00068727 -2.3232e-05 -0 0.000687271 -0 0.00068727)
(0.000935213 -3.82857e-05 -0 0.000935213 -0 0.000935213)
(0.00093291 -3.81709e-05 -0 0.000932908 -0 0.000932909)
(0.000932066 -3.81426e-05 -0 0.000932066 -0 0.000932066)
(0.000934165 -3.82462e-05 -0 0.000934167 -0 0.000934166)
(0.00124147 -6.09414e-05 -0 0.00124147 -0 0.00124147)
(0.00123844 -6.07491e-05 -0 0.00123844 -0 0.00123844)
(0.0012373 -6.07061e-05 -0 0.00123731 -0 0.00123731)
(0.00124007 -6.08778e-05 -0 0.00124008 -0 0.00124007)
(0.00161452 -9.44033e-05 -0 0.00161452 -0 0.00161452)
(0.00161063 -9.40874e-05 -0 0.00161062 -0 0.00161063)
(0.00160913 -9.40237e-05 -0 0.00160913 -0 0.00160913)
(0.00161269 -9.4301e-05 -0 0.0016127 -0 0.0016127)
(0.00206182 -0.000143078 -0 0.00206182 -0 0.00206182)
(0.00205693 -0.000142566 -0 0.00205692 -0 0.00205693)
(0.00205499 -0.000142473 -0 0.00205499 -0 0.00205499)
(0.00205948 -0.000142911 -0 0.00205949 -0 0.00205948)
(0.00259013 -0.000213081 -0 0.00259012 -0 0.00259012)
(0.00258412 -0.000212264 -0 0.0025841 -0 0.00258411)
(0.00258164 -0.000212128 -0 0.00258164 -0 0.00258164)
(0.0025872 -0.000212804 -0 0.00258721 -0 0.0025872)
(0.00320493 -0.000312898 -0 0.00320492 -0 0.00320492)
(0.0031977 -0.000311601 -0 0.00319767 -0 0.00319769)
(0.00319459 -0.000311402 -0 0.00319459 -0 0.00319459)
(0.00320134 -0.000312433 -0 0.00320136 -0 0.00320135)
(0.00390973 -0.000454209 -0 0.00390972 -0 0.00390972)
(0.00390122 -0.000452165 -0 0.00390119 -0 0.0039012)
(0.00389739 -0.000451871 -0 0.0038974 -0 0.00389739)
(0.00390545 -0.000453428 -0 0.00390548 -0 0.00390547)
(0.00470526 -0.000652877 -0 0.00470524 -0 0.00470525)
(0.00469547 -0.000649687 -0 0.00469542 -0 0.00469545)
(0.00469083 -0.000649237 -0 0.00469084 -0 0.00469083)
(0.00470028 -0.000651578 -0 0.00470034 -0 0.00470031)
(0.00558852 -0.000929919 -0 0.00558849 -0 0.00558851)
(0.00557755 -0.000925009 -0 0.00557747 -0 0.00557751)
(0.00557201 -0.000924284 -0 0.00557204 -0 0.00557203)
(0.00558292 -0.000927807 -0 0.005583 -0 0.00558296)
(0.00655188 -0.00131208 -0 0.00655184 -0 0.00655186)
(0.00653991 -0.00130467 -0 0.00653981 -0 0.00653986)
(0.00653345 -0.00130343 -0 0.00653349 -0 0.00653347)
(0.0065458 -0.00130877 -0 0.0065459 -0 0.00654585)
(0.00758216 -0.00183122 -0 0.00758209 -0 0.00758213)
(0.00756953 -0.00182035 -0 0.00756939 -0 0.00756946)
(0.00756216 -0.00181805 -0 0.00756222 -0 0.00756219)
(0.00757583 -0.00182627 -0 0.00757597 -0 0.0075759)
(0.00866009 -0.00252099 -0 0.00866 -0 0.00866004)
(0.00864726 -0.00250579 -0 0.00864709 -0 0.00864718)
(0.00863911 -0.0025016 -0 0.00863919 -0 0.00863915)
(0.00865384 -0.00251417 -0 0.00865401 -0 0.00865393)
(0.00976038 -0.00341136 -0 0.00976028 -0 0.00976033)
(0.00974792 -0.00339125 -0 0.00974778 -0 0.00974784)
(0.00973928 -0.0033837 -0 0.00973938 -0 0.00973933)
(0.00975463 -0.00340264 -0 0.00975477 -0 0.0097547)
(0.0108529 -0.00454494 -0 0.0108527 -0 0.0108528)
(0.0108414 -0.00451814 -0 0.0108413 -0 0.0108414)
(0.0108327 -0.00450421 -0 0.0108329 -0 0.0108328)
(0.010848 -0.00453396 -0 0.0108481 -0 0.010848)
(0.0119144 -0.00554015 -0 0.0119142 -0 0.0119143)
(0.0119039 -0.00553533 -0 0.011904 -0 0.0119039)
(0.0118955 -0.00553144 -0 0.0118956 -0 0.0118956)
(0.0119106 -0.00553841 -0 0.0119105 -0 0.0119106)
(0.0129431 -0.0060185 -0 0.0129429 -0 0.012943)
(0.0129333 -0.006014 -0 0.0129334 -0 0.0129333)
(0.0129251 -0.00601021 -0 0.0129253 -0 0.0129252)
(0.0129403 -0.00601719 -0 0.0129401 -0 0.0129402)
(0.0139409 -0.00648246 -0 0.0139407 -0 0.0139408)
(0.0139318 -0.00647834 -0 0.013932 -0 0.0139319)
(0.0139241 -0.00647476 -0 0.0139243 -0 0.0139242)
(0.0139392 -0.00648165 -0 0.0139389 -0 0.013939)
(0.0148999 -0.00692837 -0 0.0148996 -0 0.0148997)
(0.0148916 -0.00692466 -0 0.0148919 -0 0.0148917)
(0.0148846 -0.0069214 -0 0.0148849 -0 0.0148847)
(0.0148993 -0.00692811 -0 0.014899 -0 0.0148992)
(0.0158129 -0.00735292 -0 0.0158126 -0 0.0158127)
(0.0158055 -0.00734965 -0 0.0158059 -0 0.0158057)
(0.0157995 -0.00734684 -0 0.0157998 -0 0.0157997)
(0.0158136 -0.00735326 -0 0.0158133 -0 0.0158135)
(0.0166745 -0.00775356 -0 0.0166741 -0 0.0166743)
(0.016668 -0.00775075 -0 0.0166685 -0 0.0166683)
(0.0166632 -0.00774848 -0 0.0166636 -0 0.0166634)
(0.0166766 -0.00775452 -0 0.0166762 -0 0.0166764)
(0.0174806 -0.00812836 -0 0.0174801 -0 0.0174803)
(0.0174751 -0.00812604 -0 0.0174756 -0 0.0174753)
(0.0174716 -0.0081244 -0 0.0174721 -0 0.0174718)
(0.0174841 -0.00812999 -0 0.0174836 -0 0.0174839)
(0.0182282 -0.00847599 -0 0.0182277 -0 0.0182279)
(0.0182238 -0.00847419 -0 0.0182244 -0 0.0182241)
(0.0182218 -0.00847325 -0 0.0182223 -0 0.018222)
(0.0182333 -0.00847833 -0 0.0182327 -0 0.018233)
(0.0189155 -0.00879558 -0 0.0189149 -0 0.0189152)
(0.0189122 -0.00879433 -0 0.0189129 -0 0.0189125)
(0.0189118 -0.00879413 -0 0.0189124 -0 0.0189121)
(0.0189222 -0.00879865 -0 0.0189215 -0 0.0189218)
(0.0195415 -0.00908666 -0 0.0195409 -0 0.0195412)
(0.0195394 -0.00908602 -0 0.0195402 -0 0.0195398)
(0.0195407 -0.00908657 -0 0.0195413 -0 0.019541)
(0.0195499 -0.00909051 -0 0.0195491 -0 0.0195495)
(0.0201059 -0.00934911 -0 0.0201053 -0 0.0201056)
(0.0201052 -0.00934912 -0 0.020106 -0 0.0201056)
(0.0201082 -0.00935044 -0 0.0201088 -0 0.0201085)
(0.020116 -0.00935377 -0 0.0201152 -0 0.0201156)
(0.0206091 -0.00958309 -0 0.0206085 -0 0.0206088)
(0.0206099 -0.00958382 -0 0.0206108 -0 0.0206104)
(0.0206146 -0.00958591 -0 0.0206152 -0 0.0206149)
(0.0206211 -0.0095886 -0 0.0206202 -0 0.0206206)
(0.0210534 -0.0097897 -0 0.0210528 -0 0.0210531)
(0.0210552 -0.00979088 -0 0.0210561 -0 0.0210557)
(0.0210614 -0.00979369 -0 0.021062 -0 0.0210617)
(0.0210669 -0.00979591 -0 0.021066 -0 0.0210665)
(0.0214456 -0.00997207 -0 0.021445 -0 0.0214453)
(0.021448 -0.00997352 -0 0.0214489 -0 0.0214484)
(0.0214554 -0.0099769 -0 0.021456 -0 0.0214557)
(0.0214602 -0.00997878 -0 0.0214593 -0 0.0214597)
(0.02179 -0.0101322 -0 0.0217895 -0 0.0217897)
(0.0217928 -0.0101339 -0 0.0217937 -0 0.0217932)
(0.0218011 -0.0101376 -0 0.0218015 -0 0.0218013)
(0.0218051 -0.0101392 -0 0.0218043 -0 0.0218047)
(0.022089 -0.0102713 -0 0.0220887 -0 0.0220888)
(0.0220922 -0.0102731 -0 0.0220931 -0 0.0220926)
(0.0221009 -0.010277 -0 0.0221012 -0 0.0221011)
(0.0221041 -0.0102782 -0 0.0221032 -0 0.0221037)
(0.0223436 -0.0103897 -0 0.0223434 -0 0.0223435)
(0.0223471 -0.0103916 -0 0.022348 -0 0.0223476)
(0.0223559 -0.0103955 -0 0.022356 -0 0.022356)
(0.0223579 -0.0103962 -0 0.022357 -0 0.0223574)
(0.0225532 -0.0104872 -0 0.0225532 -0 0.0225532)
(0.0225571 -0.0104893 -0 0.022558 -0 0.0225576)
(0.0225656 -0.010493 -0 0.0225655 -0 0.0225656)
(0.0225657 -0.0104928 -0 0.0225648 -0 0.0225652)
(0.0227159 -0.0105629 -0 0.022716 -0 0.0227159)
(0.0227203 -0.0105651 -0 0.0227212 -0 0.0227207)
(0.022728 -0.0105685 -0 0.0227279 -0 0.0227279)
(0.0227252 -0.010567 -0 0.0227243 -0 0.0227248)
(0.0228287 -0.0106154 -0 0.022829 -0 0.0228288)
(0.0228337 -0.0106179 -0 0.0228347 -0 0.0228342)
(0.0228408 -0.0106209 -0 0.0228405 -0 0.0228406)
(0.0228352 -0.0106181 -0 0.0228342 -0 0.0228347)
(0.0228937 -0.0106456 -0 0.0228941 -0 0.0228939)
(0.0228994 -0.0106484 -0 0.0229004 -0 0.0228999)
(0.0229057 -0.0106511 -0 0.0229053 -0 0.0229055)
(0.0228975 -0.0106471 -0 0.0228965 -0 0.022897)
(0.0229126 -0.0106545 -0 0.0229131 -0 0.0229128)
(0.0229191 -0.0106576 -0 0.0229201 -0 0.0229196)
(0.0229247 -0.0106599 -0 0.0229242 -0 0.0229244)
(0.0229139 -0.0106547 -0 0.0229129 -0 0.0229134)
(0.0228872 -0.0106427 -0 0.0228877 -0 0.0228875)
(0.0228946 -0.0106462 -0 0.0228956 -0 0.0228951)
(0.0228994 -0.0106481 -0 0.0228989 -0 0.0228992)
(0.0228864 -0.0106419 -0 0.0228853 -0 0.0228858)
(0.0228192 -0.0106111 -0 0.0228198 -0 0.0228195)
(0.0228275 -0.010615 -0 0.0228286 -0 0.0228281)
(0.0228316 -0.0106165 -0 0.022831 -0 0.0228313)
(0.0228164 -0.0106094 -0 0.0228153 -0 0.0228158)
(0.0227101 -0.0105603 -0 0.0227107 -0 0.0227104)
(0.0227194 -0.0105648 -0 0.0227205 -0 0.0227199)
(0.0227227 -0.0105659 -0 0.0227221 -0 0.0227224)
(0.0227055 -0.0105578 -0 0.0227044 -0 0.022705)
(0.0225614 -0.0104912 -0 0.0225619 -0 0.0225616)
(0.0225715 -0.010496 -0 0.0225727 -0 0.0225721)
(0.0225741 -0.0104968 -0 0.0225736 -0 0.0225738)
(0.0225552 -0.0104879 -0 0.0225541 -0 0.0225547)
(0.0223742 -0.0104041 -0 0.0223747 -0 0.0223744)
(0.0223853 -0.0104094 -0 0.0223864 -0 0.0223858)
(0.0223872 -0.0104099 -0 0.0223867 -0 0.0223869)
(0.0223668 -0.0104003 -0 0.0223656 -0 0.0223662)
(0.0221497 -0.0102997 -0 0.0221502 -0 0.02215)
(0.0221617 -0.0103054 -0 0.0221628 -0 0.0221622)
(0.022163 -0.0103057 -0 0.0221625 -0 0.0221628)
(0.0221412 -0.0102954 -0 0.0221401 -0 0.0221407)
(0.0218889 -0.0101784 -0 0.0218893 -0 0.0218891)
(0.0219016 -0.0101845 -0 0.0219027 -0 0.0219022)
(0.0219025 -0.0101846 -0 0.0219021 -0 0.0219023)
(0.0218796 -0.0101738 -0 0.0218785 -0 0.021879)
(0.0215924 -0.0100406 -0 0.0215928 -0 0.0215926)
(0.0216059 -0.010047 -0 0.0216069 -0 0.0216064)
(0.0216064 -0.0100469 -0 0.021606 -0 0.0216062)
(0.0215825 -0.0100356 -0 0.0215815 -0 0.021582)
(0.0212608 -0.00988636 -0 0.0212612 -0 0.021261)
(0.0212749 -0.00989306 -0 0.0212759 -0 0.0212754)
(0.0212751 -0.00989285 -0 0.0212748 -0 0.021275)
(0.0212504 -0.00988123 -0 0.0212495 -0 0.02125)
(0.0208942 -0.00971591 -0 0.0208946 -0 0.0208944)
(0.0209089 -0.00972284 -0 0.0209098 -0 0.0209093)
(0.0209089 -0.00972256 -0 0.0209085 -0 0.0209087)
(0.0208836 -0.00971068 -0 0.0208827 -0 0.0208832)
(0.0204927 -0.00952919 -0 0.0204931 -0 0.0204929)
(0.0205077 -0.00953627 -0 0.0205085 -0 0.0205081)
(0.0205076 -0.00953595 -0 0.0205072 -0 0.0205074)
(0.020482 -0.00952392 -0 0.0204811 -0 0.0204815)
(0.0200558 -0.00932605 -0 0.0200563 -0 0.020056)
(0.020071 -0.00933319 -0 0.0200717 -0 0.0200714)
(0.020071 -0.00933288 -0 0.0200705 -0 0.0200707)
(0.0200451 -0.00932079 -0 0.0200443 -0 0.0200447)
(0.0195829 -0.0091062 -0 0.0195835 -0 0.0195832)
(0.0195982 -0.00911331 -0 0.0195988 -0 0.0195985)
(0.0195982 -0.00911304 -0 0.0195976 -0 0.0195979)
(0.0195724 -0.00910101 -0 0.0195718 -0 0.0195721)
(0.0190733 -0.00886927 -0 0.0190741 -0 0.0190737)
(0.0190885 -0.00887624 -0 0.0190889 -0 0.0190887)
(0.0190887 -0.00887605 -0 0.0190879 -0 0.0190883)
(0.019063 -0.00886419 -0 0.0190625 -0 0.0190628)
(0.0185259 -0.00861475 -0 0.0185268 -0 0.0185264)
(0.0185407 -0.00862148 -0 0.018541 -0 0.0185408)
(0.0185412 -0.00862141 -0 0.0185402 -0 0.0185407)
(0.0185159 -0.00860984 -0 0.0185156 -0 0.0185158)
(0.0179392 -0.00834201 -0 0.0179404 -0 0.0179398)
(0.0179535 -0.00834839 -0 0.0179536 -0 0.0179535)
(0.0179543 -0.00834848 -0 0.0179531 -0 0.0179537)
(0.0179297 -0.00833727 -0 0.0179295 -0 0.0179296)
(0.0173116 -0.00805022 -0 0.0173131 -0 0.0173123)
(0.0173252 -0.00805618 -0 0.0173251 -0 0.0173251)
(0.0173264 -0.00805643 -0 0.0173249 -0 0.0173257)
(0.0173025 -0.00804568 -0 0.0173026 -0 0.0173025)
(0.016641 -0.00773847 -0 0.0166428 -0 0.0166419)
(0.0166539 -0.00774398 -0 0.0166535 -0 0.0166537)
(0.0166555 -0.00774438 -0 0.0166537 -0 0.0166546)
(0.0166324 -0.00773416 -0 0.0166328 -0 0.0166326)
(0.0159253 -0.00740574 -0 0.0159274 -0 0.0159263)
(0.0159376 -0.00741082 -0 0.0159368 -0 0.0159372)
(0.0159394 -0.00741132 -0 0.0159372 -0 0.0159383)
(0.0159172 -0.00740168 -0 0.015918 -0 0.0159176)
(0.0151618 -0.0070508 -0 0.0151642 -0 0.015163)
(0.0151738 -0.0070555 -0 0.0151725 -0 0.0151731)
(0.0151756 -0.00705607 -0 0.0151731 -0 0.0151743)
(0.0151542 -0.007047 -0 0.0151555 -0 0.0151548)
(0.0143473 -0.0066721 -0 0.01435 -0 0.0143486)
(0.0143591 -0.00667656 -0 0.0143572 -0 0.0143582)
(0.0143607 -0.0066771 -0 0.014358 -0 0.0143594)
(0.0143401 -0.00666857 -0 0.0143419 -0 0.014341)
(0.0134754 -0.00626667 -0 0.013478 -0 0.0134767)
(0.0134869 -0.00627091 -0 0.0134848 -0 0.0134858)
(0.0134881 -0.00627134 -0 0.0134854 -0 0.0134867)
(0.0134681 -0.00626316 -0 0.0134702 -0 0.0134692)
(0.01251 -0.00507147 -0 0.0125118 -0 0.0125109)
(0.0125181 -0.00502183 -0 0.0125167 -0 0.0125174)
(0.0125185 -0.00501763 -0 0.0125167 -0 0.0125176)
(0.0124988 -0.00498987 -0 0.0125002 -0 0.0124995)
(0.0114226 -0.00401852 -0 0.0114235 -0 0.011423)
(0.0114252 -0.00397657 -0 0.0114247 -0 0.011425)
(0.0114244 -0.0039722 -0 0.0114236 -0 0.011424)
(0.0114037 -0.00394414 -0 0.0114043 -0 0.011404)
(0.0102387 -0.0031037 -0 0.0102389 -0 0.0102388)
(0.0102374 -0.00306866 -0 0.0102374 -0 0.0102374)
(0.0102351 -0.00306229 -0 0.0102349 -0 0.010235)
(0.0102132 -0.00303621 -0 0.0102132 -0 0.0102132)
(0.00900117 -0.00233228 -0 0.00900101 -0 0.00900109)
(0.0089981 -0.00230837 -0 0.00899827 -0 0.00899819)
(0.00899438 -0.00229859 -0 0.00899453 -0 0.00899446)
(0.00897179 -0.00227742 -0 0.00897163 -0 0.00897171)
(0.00776157 -0.00170224 -0 0.0077613 -0 0.00776144)
(0.00775844 -0.00168506 -0 0.00775861 -0 0.00775852)
(0.00775404 -0.00167868 -0 0.0077543 -0 0.00775417)
(0.00773191 -0.00166176 -0 0.00773174 -0 0.00773182)
(0.00656764 -0.00121217 -0 0.00656739 -0 0.00656751)
(0.00656518 -0.00120145 -0 0.00656529 -0 0.00656523)
(0.00656098 -0.00119722 -0 0.00656122 -0 0.0065611)
(0.00654034 -0.00118493 -0 0.00654023 -0 0.00654029)
(0.00545401 -0.000848207 -0 0.00545383 -0 0.00545392)
(0.0054524 -0.000842198 -0 0.00545246 -0 0.00545243)
(0.00544901 -0.000839813 -0 0.00544919 -0 0.0054491)
(0.00543071 -0.000831411 -0 0.00543066 -0 0.00543068)
(0.0044472 -0.00058663 -0 0.00444708 -0 0.00444714)
(0.00444639 -0.000583416 -0 0.0044464 -0 0.0044464)
(0.00444423 -0.00058259 -0 0.00444435 -0 0.00444429)
(0.00442892 -0.000577274 -0 0.0044289 -0 0.00442891)
(0.00356482 -0.000403301 -0 0.00356475 -0 0.00356479)
(0.00356462 -0.00040178 -0 0.00356462 -0 0.00356462)
(0.00356381 -0.000401958 -0 0.00356388 -0 0.00356385)
(0.00355175 -0.000398677 -0 0.00355175 -0 0.00355175)
(0.00281334 -0.000276979 -0 0.0028133 -0 0.00281332)
(0.00281354 -0.00027638 -0 0.00281353 -0 0.00281353)
(0.00281392 -0.000276994 -0 0.00281396 -0 0.00281394)
(0.00280491 -0.000275064 -0 0.00280492 -0 0.00280492)
(0.00218915 -0.000190139 -0 0.00218913 -0 0.00218914)
(0.00218953 -0.000189972 -0 0.00218953 -0 0.00218953)
(0.00219079 -0.000190706 -0 0.00219081 -0 0.0021908)
(0.0021844 -0.000189622 -0 0.00218441 -0 0.0021844)
(0.00168164 -0.00013019 -0 0.00168163 -0 0.00168163)
(0.00168206 -0.000130201 -0 0.00168205 -0 0.00168205)
(0.00168382 -0.000130885 -0 0.00168383 -0 0.00168383)
(0.00167952 -0.000130299 -0 0.00167952 -0 0.00167952)
(0.00127654 -8.87679e-05 -0 0.00127654 -0 0.00127654)
(0.00127691 -8.88424e-05 -0 0.0012769 -0 0.00127691)
(0.00127885 -8.93986e-05 -0 0.00127885 -0 0.00127885)
(0.00127612 -8.90884e-05 -0 0.00127612 -0 0.00127612)
(0.000958378 -6.01746e-05 -0 0.000958378 -0 0.000958378)
(0.000958661 -6.02619e-05 -0 0.000958658 -0 0.000958659)
(0.000960535 -6.06773e-05 -0 0.000960535 -0 0.000960535)
(0.000958937 -6.05198e-05 -0 0.000958939 -0 0.000958938)
(0.000712053 -4.04743e-05 -0 0.000712054 -0 0.000712053)
(0.000712269 -4.05555e-05 -0 0.000712267 -0 0.000712268)
(0.00071392 -4.08456e-05 -0 0.00071392 -0 0.00071392)
(0.000713082 -4.07709e-05 -0 0.000713083 -0 0.000713083)
(0.000523858 -2.69845e-05 -0 0.000523858 -0 0.000523858)
(0.000524009 -2.70522e-05 -0 0.000524008 -0 0.000524009)
(0.000525365 -2.72431e-05 -0 0.000525365 -0 0.000525365)
(0.00052499 -2.72111e-05 -0 0.00052499 -0 0.00052499)
(0.000381823 -1.78217e-05 -0 0.000381824 -0 0.000381823)
(0.000381918 -1.78737e-05 -0 0.000381918 -0 0.000381918)
(0.000382968 -1.79937e-05 -0 0.000382968 -0 0.000382968)
(0.000382849 -1.79825e-05 -0 0.000382849 -0 0.000382849)
(0.000275839 -1.16485e-05 -0 0.000275839 -0 0.000275839)
(0.000275894 -1.1686e-05 -0 0.000275894 -0 0.000275894)
(0.000276666 -1.17581e-05 -0 0.000276666 -0 0.000276666)
(0.000276682 -1.17565e-05 -0 0.000276682 -0 0.000276682)
(0.000197607 -7.53029e-06 -0 0.000197607 -0 0.000197607)
(0.000197638 -7.55561e-06 -0 0.000197638 -0 0.000197638)
(0.000198179 -7.59679e-06 -0 0.000198179 -0 0.000198179)
(0.000198259 -7.59892e-06 -0 0.000198259 -0 0.000198259)
(0.000140462 -4.8132e-06 -0 0.000140462 -0 0.000140462)
(0.000140479 -4.82925e-06 -0 0.000140479 -0 0.000140479)
(0.00014084 -4.85148e-06 -0 0.00014084 -0 0.00014084)
(0.000140941 -4.85439e-06 -0 0.000140941 -0 0.000140941)
(9.91371e-05 -3.04046e-06 -0 9.91372e-05 -0 9.91372e-05)
(9.91445e-05 -3.04998e-06 -0 9.91446e-05 -0 9.91445e-05)
(9.93743e-05 -3.06129e-06 -0 9.93742e-05 -0 9.93743e-05)
(9.94724e-05 -3.06378e-06 -0 9.94723e-05 -0 9.94723e-05)
(6.95364e-05 -1.8964e-06 -0 6.95365e-05 -0 6.95364e-05)
(6.95381e-05 -1.90169e-06 -0 6.95381e-05 -0 6.95381e-05)
(6.96772e-05 -1.90704e-06 -0 6.96771e-05 -0 6.96772e-05)
(6.97603e-05 -1.90882e-06 -0 6.97602e-05 -0 6.97602e-05)
(4.85266e-05 -1.16604e-06 -0 4.85266e-05 -0 4.85266e-05)
(4.85249e-05 -1.1688e-06 -0 4.8525e-05 -0 4.85249e-05)
(4.86046e-05 -1.17108e-06 -0 4.86046e-05 -0 4.86046e-05)
(4.86693e-05 -1.17224e-06 -0 4.86693e-05 -0 4.86693e-05)
(3.37478e-05 -7.05026e-07 -0 3.37478e-05 -0 3.37478e-05)
(3.37445e-05 -7.06363e-07 -0 3.37445e-05 -0 3.37445e-05)
(3.37872e-05 -7.07174e-07 -0 3.37872e-05 -0 3.37872e-05)
(3.38347e-05 -7.07891e-07 -0 3.38346e-05 -0 3.38347e-05)
(2.3451e-05 -4.17621e-07 -0 2.3451e-05 -0 2.3451e-05)
(2.34474e-05 -4.18225e-07 -0 2.34474e-05 -0 2.34474e-05)
(2.34682e-05 -4.18375e-07 -0 2.34682e-05 -0 2.34682e-05)
(2.35013e-05 -4.18826e-07 -0 2.35013e-05 -0 2.35013e-05)
(1.6362e-05 -2.41036e-07 -0 1.6362e-05 -0 1.6362e-05)
(1.63588e-05 -2.4128e-07 -0 1.63588e-05 -0 1.63588e-05)
(1.63674e-05 -2.41197e-07 -0 1.63674e-05 -0 1.63674e-05)
(1.63893e-05 -2.41473e-07 -0 1.63893e-05 -0 1.63893e-05)
(1.15702e-05 -1.34386e-07 -0 1.15702e-05 -0 1.15702e-05)
(1.15678e-05 -1.34468e-07 -0 1.15678e-05 -0 1.15678e-05)
(1.15701e-05 -1.34341e-07 -0 1.15701e-05 -0 1.15701e-05)
(1.15838e-05 -1.34511e-07 -0 1.15838e-05 -0 1.15838e-05)
(8.44273e-06 -7.10732e-08 -0 8.44273e-06 -0 8.44273e-06)
(8.44116e-06 -7.10991e-08 -0 8.44117e-06 -0 8.44117e-06)
(8.44026e-06 -7.09971e-08 -0 8.44026e-06 -0 8.44026e-06)
(8.44881e-06 -7.10896e-08 -0 8.4488e-06 -0 8.4488e-06)
(6.56004e-06 -3.3557e-08 -0 6.56004e-06 -0 6.56004e-06)
(6.55917e-06 -3.35646e-08 -0 6.55917e-06 -0 6.55917e-06)
(6.55669e-06 -3.35038e-08 -0 6.55669e-06 -0 6.55669e-06)
(6.56231e-06 -3.35468e-08 -0 6.56231e-06 -0 6.56231e-06)
(5.67176e-06 -9.75407e-09 -0 5.67177e-06 -0 5.67176e-06)
(5.67125e-06 -9.75548e-09 -0 5.67125e-06 -0 5.67125e-06)
(5.6682e-06 -9.73579e-09 -0 5.6682e-06 -0 5.6682e-06)
(5.67247e-06 -9.74769e-09 -0 5.67246e-06 -0 5.67247e-06)
)
;

boundaryField
{
    inlet
    {
        type            cyclic;
    }
    outlet
    {
        type            cyclic;
    }
    fixedWalls-bottom
    {
        type            kqRWallFunction;
        value           nonuniform List<symmTensor> 4((1.06894e-08 -0 -0 1.06894e-08 -0 1.06894e-08) (1.06629e-08 -0 -0 1.06629e-08 -0 1.06629e-08) (1.06537e-08 -0 -0 1.06537e-08 -0 1.06537e-08) (1.06777e-08 -0 -0 1.06777e-08 -0 1.06777e-08));
    }
    fixedWalls-top
    {
        type            symmetry;
    }
    frontAndBack
    {
        type            empty;
    }
}


// ************************************************************************* //
