y,U_x,U_y,U_z,k,nut
0,0,0,0,2.93806e-06,0
0.00502513,0.112216,3.09443e-09,0,7.18299e-05,3.26004e-07
0.0100503,0.221807,1.16006e-08,0,0.000486516,4.46407e-06
0.0150754,0.323475,2.56633e-08,0,0.00153127,2.22068e-05
0.0201005,0.409741,4.27131e-08,0,0.00299424,6.09148e-05
0.0251256,0.478129,5.92756e-08,0,0.00436742,0.000116449
0.0301508,0.531768,7.29144e-08,0,0.0054132,0.00018099
0.0351759,0.574777,8.25948e-08,0,0.00616391,0.000251607
0.040201,0.610119,8.85361e-08,0,0.00670052,0.000327466
0.0452261,0.639787,9.15689e-08,0,0.00708665,0.00040715
0.0502513,0.665169,9.26984e-08,0,0.00736773,0.000489471
0.0552764,0.687249,9.28115e-08,0,0.00757467,0.000573518
0.0603015,0.706729,9.25417e-08,0,0.00772836,0.00065861
0.0653266,0.724126,9.22129e-08,0,0.00784301,0.000744256
0.0703518,0.739667,9.17607e-08,0,0.00792607,0.000830105
0.0753769,0.753831,9.07112e-08,0,0.00798772,0.000915885
0.080402,0.766833,8.82935e-08,0,0.00803269,0.00100145
0.0854271,0.778846,8.36883e-08,0,0.00806443,0.00108669
0.0904523,0.790007,7.65739e-08,0,0.00808555,0.00117153
0.0954774,0.800427,6.77445e-08,0,0.00809802,0.0012559
0.100503,0.810197,5.88883e-08,0,0.00810333,0.00133977
0.105528,0.819365,5.19988e-08,0,0.00810241,0.00142328
0.110553,0.827931,4.96378e-08,0,0.00809568,0.00150673
0.115578,0.836053,5.07533e-08,0,0.00808495,0.00158998
0.120603,0.843772,5.37703e-08,0,0.00807074,0.00167285
0.125628,0.851126,5.72892e-08,0,0.00805352,0.0017553
0.130653,0.858144,6.01501e-08,0,0.00803364,0.00183733
0.135678,0.864756,6.07383e-08,0,0.00801071,0.00191883
0.140704,0.871101,5.9997e-08,0,0.00798588,0.00199995
0.145729,0.8772,5.83116e-08,0,0.00795934,0.0020807
0.150754,0.88307,5.60088e-08,0,0.00793126,0.00216108
0.155779,0.888653,5.34189e-08,0,0.00790132,0.00224095
0.160804,0.894023,5.08901e-08,0,0.00787005,0.00232039
0.165829,0.899218,4.84796e-08,0,0.00783771,0.00239943
0.170854,0.904248,4.62266e-08,0,0.00780438,0.00247807
0.175879,0.909035,4.4256e-08,0,0.00776966,0.00255602
0.180905,0.913683,4.24368e-08,0,0.00773416,0.00263351
0.18593,0.918202,4.07517e-08,0,0.00769795,0.00271053
0.190955,0.922551,3.92226e-08,0,0.00766082,0.00278688
0.19598,0.92675,3.78033e-08,0,0.00762291,0.00286251
0.201005,0.930848,3.64543e-08,0,0.00758447,0.00293762
0.20603,0.934816,3.5187e-08,0,0.00754537,0.003012
0.211055,0.938644,3.40063e-08,0,0.00750557,0.00308546
0.21608,0.942389,3.28798e-08,0,0.00746536,0.00315834
0.221106,0.946026,3.18277e-08,0,0.00742462,0.00323039
0.226131,0.949543,3.08758e-08,0,0.00738331,0.00330144
0.231156,0.952992,2.99882e-08,0,0.00734169,0.00337191
0.236181,0.956338,2.92133e-08,0,0.00729958,0.00344144
0.241206,0.959591,2.85703e-08,0,0.00725705,0.00351012
0.246231,0.96279,2.80102e-08,0,0.00721428,0.00357831
0.251256,0.965877,2.76526e-08,0,0.00717102,0.00364556
0.256281,0.968904,2.74175e-08,0,0.00712753,0.00371241
0.261307,0.971873,2.73032e-08,0,0.00708379,0.00377888
0.266332,0.974742,2.73595e-08,0,0.00703969,0.00384506
0.271357,0.977574,2.745e-08,0,0.00699547,0.00391126
0.276382,0.980321,2.75734e-08,0,0.00695098,0.00397768
0.281407,0.98301,2.75702e-08,0,0.00690637,0.00404468
0.286432,0.985652,2.74604e-08,0,0.00686165,0.00411217
0.291457,0.988208,2.68629e-08,0,0.00681684,0.00418128
0.296482,0.990735,2.6076e-08,0,0.00677201,0.00425101
0.301508,0.993174,2.45584e-08,0,0.0067272,0.00432314
0.306533,0.995576,2.27824e-08,0,0.00668247,0.00439642
0.311558,0.997915,2.05672e-08,0,0.00663785,0.00447166
0.316583,1.0002,1.84333e-08,0,0.00659344,0.00454847
0.321608,1.00244,1.63541e-08,0,0.00654917,0.00462635
0.326633,1.00461,1.56137e-08,0,0.00650528,0.00470467
0.331658,1.00676,1.52093e-08,0,0.00646149,0.0047831
0.336683,1.00882,1.76864e-08,0,0.00641823,0.00485748
0.341709,1.01087,2.04725e-08,0,0.00637505,0.00493016
0.346734,1.01284,2.48981e-08,0,0.00633231,0.00499187
0.351759,1.01481,2.93782e-08,0,0.00628966,0.00505078
0.356784,1.01672,3.40207e-08,0,0.00624728,0.00510137
0.361809,1.01861,3.81316e-08,0,0.00620502,0.00515077
0.366834,1.02046,4.12548e-08,0,0.00616296,0.00519792
0.371859,1.02229,4.3327e-08,0,0.00612103,0.00524406
0.376884,1.02408,4.39553e-08,0,0.00607928,0.0052888
0.38191,1.02584,4.38782e-08,0,0.00603767,0.00533241
0.386935,1.02758,4.29912e-08,0,0.00599623,0.00537471
0.39196,1.02929,4.16999e-08,0,0.00595493,0.00541581
0.396985,1.03097,3.99746e-08,0,0.00591379,0.00545562
0.40201,1.03263,3.80202e-08,0,0.0058728,0.00549421
0.407035,1.03426,3.58087e-08,0,0.00583197,0.00553144
0.41206,1.03587,3.35052e-08,0,0.00579127,0.00556753
0.417085,1.03746,3.10805e-08,0,0.00575075,0.00560211
0.422111,1.03902,2.86693e-08,0,0.00571034,0.00563571
0.427136,1.04056,2.62818e-08,0,0.00567013,0.00566761
0.432161,1.04208,2.39516e-08,0,0.00563,0.00569878
0.437186,1.04357,2.17802e-08,0,0.00559009,0.00572798
0.442211,1.04506,1.96575e-08,0,0.00555023,0.00575681
0.447236,1.0465,1.78374e-08,0,0.00551063,0.00578334
0.452261,1.04795,1.60173e-08,0,0.00547103,0.00580987
0.457286,1.04936,1.45909e-08,0,0.00543174,0.00583383
0.462312,1.05077,1.31719e-08,0,0.00539246,0.00585774
0.467337,1.05214,1.20665e-08,0,0.00535343,0.00587962
0.472362,1.05351,1.10426e-08,0,0.00531446,0.00590098
0.477387,1.05485,1.02436e-08,0,0.00527569,0.00592094
0.482412,1.05618,9.6106e-09,0,0.00523704,0.00593986
0.487437,1.05749,9.09497e-09,0,0.00519851,0.00595802
0.492462,1.05878,8.82227e-09,0,0.0051602,0.00597459
0.497487,1.06007,8.56405e-09,0,0.00512191,0.00599107
0.502513,1.06132,8.6176e-09,0,0.00508395,0.00600542
0.507538,1.06258,8.67116e-09,0,0.00504598,0.00601977
0.512563,1.0638,8.90653e-09,0,0.00500828,0.00603257
0.517588,1.06502,9.20887e-09,0,0.00497068,0.0060448
0.522613,1.06623,9.56975e-09,0,0.00493321,0.00605625
0.527638,1.06741,1.00243e-08,0,0.00489598,0.00606646
0.532663,1.06859,1.04791e-08,0,0.00485875,0.00607666
0.537688,1.06974,1.0992e-08,0,0.00482191,0.00608497
0.542714,1.07089,1.15049e-08,0,0.00478508,0.00609327
0.547739,1.07202,1.20051e-08,0,0.00474849,0.0061005
0.552764,1.07313,1.24965e-08,0,0.00471206,0.00610698
0.557789,1.07424,1.29789e-08,0,0.00467571,0.00611321
0.562814,1.07533,1.34082e-08,0,0.00463972,0.00611796
0.567839,1.07641,1.38375e-08,0,0.00460374,0.00612272
0.572864,1.07747,1.42399e-08,0,0.00456806,0.00612637
0.577889,1.07852,1.46286e-08,0,0.00453254,0.00612948
0.582915,1.07957,1.50152e-08,0,0.0044971,0.00613236
0.58794,1.08058,1.53898e-08,0,0.00446207,0.00613391
0.592965,1.0816,1.57644e-08,0,0.00442705,0.00613547
0.59799,1.0826,1.61379e-08,0,0.00439233,0.00613617
0.603015,1.08358,1.65106e-08,0,0.00435783,0.0061363
0.60804,1.08457,1.68833e-08,0,0.00432334,0.00613641
0.613065,1.08552,1.72492e-08,0,0.0042894,0.0061352
0.61809,1.08647,1.76151e-08,0,0.00425547,0.006134
0.623116,1.08741,1.7966e-08,0,0.00422176,0.00613231
0.628141,1.08833,1.82929e-08,0,0.00418843,0.00612986
0.633166,1.08925,1.86198e-08,0,0.00415509,0.00612741
0.638191,1.09015,1.89185e-08,0,0.00412222,0.00612415
0.643216,1.09104,1.92063e-08,0,0.00408954,0.00612058
0.648241,1.09193,1.9494e-08,0,0.00405686,0.00611699
0.653266,1.09278,1.97732e-08,0,0.00402486,0.0061124
0.658291,1.09364,2.00523e-08,0,0.00399286,0.00610782
0.663317,1.09449,2.03099e-08,0,0.00396108,0.00610297
0.668342,1.09531,2.05138e-08,0,0.00392982,0.0060975
0.673367,1.09613,2.07177e-08,0,0.00389856,0.00609203
0.678392,1.09694,2.08722e-08,0,0.0038677,0.00608617
0.683417,1.09773,2.09796e-08,0,0.00383724,0.00607993
0.688442,1.09852,2.10869e-08,0,0.00380678,0.0060737
0.693467,1.09929,2.11397e-08,0,0.00377691,0.006067
0.698492,1.10005,2.11689e-08,0,0.00374731,0.0060601
0.703518,1.10081,2.1198e-08,0,0.0037177,0.0060532
0.708543,1.10153,2.10996e-08,0,0.00368886,0.0060459
0.713568,1.10226,2.09774e-08,0,0.00366017,0.00603853
0.718593,1.10298,2.08552e-08,0,0.00363148,0.00603115
0.723618,1.10367,2.06114e-08,0,0.00360372,0.00602341
0.728643,1.10436,2.0361e-08,0,0.00357601,0.00601565
0.733668,1.10505,2.01101e-08,0,0.00354832,0.00600789
0.738693,1.10571,1.98208e-08,0,0.00352166,0.00599979
0.743719,1.10636,1.95314e-08,0,0.00349501,0.00599168
0.748744,1.10702,1.92425e-08,0,0.0034684,0.00598358
0.753769,1.10764,1.89637e-08,0,0.00344287,0.00597536
0.758794,1.10825,1.86848e-08,0,0.00341735,0.00596714
0.763819,1.10887,1.84064e-08,0,0.00339185,0.00595892
0.768844,1.10945,1.81518e-08,0,0.00336753,0.00595083
0.773869,1.11003,1.78971e-08,0,0.00334322,0.00594273
0.778894,1.11061,1.76424e-08,0,0.00331891,0.00593463
0.78392,1.11116,1.73722e-08,0,0.00329583,0.00592665
0.788945,1.11171,1.71013e-08,0,0.00327281,0.00591868
0.79397,1.11225,1.68304e-08,0,0.00324979,0.00591071
0.798995,1.11277,1.64591e-08,0,0.00322794,0.00590287
0.80402,1.11328,1.60702e-08,0,0.00320629,0.00589505
0.809045,1.11378,1.56814e-08,0,0.00318465,0.00588723
0.81407,1.11426,1.52634e-08,0,0.00316403,0.00587963
0.819095,1.11473,1.48332e-08,0,0.00314385,0.00587211
0.824121,1.1152,1.44029e-08,0,0.00312366,0.0058646
0.829146,1.11565,1.40038e-08,0,0.00310427,0.00585734
0.834171,1.11608,1.36346e-08,0,0.00308564,0.00585033
0.839196,1.1165,1.32653e-08,0,0.003067,0.00584332
0.844221,1.11692,1.29418e-08,0,0.00304882,0.00583647
0.849246,1.11731,1.27399e-08,0,0.00303182,0.00583007
0.854271,1.11769,1.25381e-08,0,0.00301483,0.00582366
0.859296,1.11808,1.23362e-08,0,0.00299783,0.00581726
0.864322,1.11843,1.22685e-08,0,0.00298255,0.00581152
0.869347,1.11877,1.22023e-08,0,0.00296728,0.00580579
0.874372,1.11912,1.2136e-08,0,0.00295201,0.00580005
0.879397,1.11943,1.19996e-08,0,0.00293794,0.00579484
0.884422,1.11974,1.1827e-08,0,0.00292449,0.0057899
0.889447,1.12004,1.16545e-08,0,0.00291103,0.00578497
0.894472,1.12033,1.14256e-08,0,0.00289811,0.00578027
0.899497,1.12058,1.10544e-08,0,0.00288655,0.00577617
0.904523,1.12084,1.06832e-08,0,0.00287499,0.00577208
0.909548,1.1211,1.03119e-08,0,0.00286343,0.00576799
0.914573,1.12132,9.77763e-09,0,0.00285356,0.00576456
0.919598,1.12153,9.21657e-09,0,0.00284397,0.00576123
0.924623,1.12174,8.65551e-09,0,0.00283437,0.00575791
0.929648,1.12194,8.04246e-09,0,0.00282557,0.00575491
0.934673,1.12211,7.3469e-09,0,0.00281802,0.00575241
0.939698,1.12227,6.65135e-09,0,0.00281047,0.00574992
0.944724,1.12244,5.95579e-09,0,0.00280291,0.00574743
0.949749,1.12257,5.27743e-09,0,0.00279718,0.00574573
0.954774,1.12269,4.60176e-09,0,0.00279173,0.00574415
0.959799,1.12281,3.92609e-09,0,0.00278628,0.00574258
0.964824,1.12292,3.29203e-09,0,0.00278147,0.00574126
0.969849,1.12299,2.75788e-09,0,0.00277817,0.00574055
0.974874,1.12306,2.22373e-09,0,0.00277488,0.00573984
0.979899,1.12313,1.68958e-09,0,0.00277158,0.00573914
0.984925,1.12317,1.23729e-09,0,0.00276977,0.00573882
0.98995,1.12319,8.2486e-10,0,0.00276867,0.00573869
0.994975,1.12322,4.1243e-10,0,0.00276757,0.00573856
1,1.12324,0,0,0.00276647,0.00573843