/*--------------------------------*- C++ -*----------------------------------*\
  =========                 |
  \\      /  F ield         | OpenFOAM: The Open Source CFD Toolbox
   \\    /   O peration     | Website:  https://openfoam.org
    \\  /    A nd           | Version:  10
     \\/     M anipulation  |
\*---------------------------------------------------------------------------*/
FoamFile
{
    format      ascii;
    class       volScalarField;
    location    "4011";
    object      omega;
}
// * * * * * * * * * * * * * * * * * * * * * * * * * * * * * * * * * * * * * //

dimensions      [0 0 -1 0 0 0 0];

internalField   nonuniform List<scalar> 
400
(
4078.43
4078.43
4078.43
4078.43
698.654
698.654
698.654
698.654
237.628
237.629
237.63
237.63
115.674
115.677
115.678
115.678
70.1365
70.1423
70.1423
70.1425
49.0196
49.0264
49.0259
49.0265
37.4254
37.4313
37.4299
37.4305
30.1519
30.155
30.1526
30.1535
25.1473
25.148
25.1446
25.1451
21.4776
21.4759
21.472
21.4725
18.6564
18.6526
18.6486
18.6491
16.4127
16.4078
16.4036
16.4042
14.5834
14.5782
14.5739
14.5745
13.063
13.0583
13.0539
13.0544
11.7796
11.7757
11.7714
11.7719
10.6823
10.6792
10.6752
10.6758
9.73375
9.73145
9.72804
9.72877
8.90638
8.90463
8.90193
8.90307
8.17929
8.17762
8.17573
8.1772
7.53599
7.53415
7.53309
7.5348
6.96358
6.96152
6.96121
6.9631
6.45168
6.44987
6.44987
6.45205
5.99217
5.99086
5.99103
5.9935
5.57863
5.57779
5.57809
5.58081
5.20563
5.20516
5.20556
5.20849
4.86859
4.86837
4.86885
4.87195
4.56361
4.56352
4.56407
4.56728
4.28738
4.28727
4.28789
4.29114
4.03678
4.03675
4.03738
4.04059
3.80931
3.80931
3.80996
3.81306
3.60265
3.60265
3.60331
3.60627
3.4147
3.41472
3.41536
3.41816
3.2436
3.24364
3.24424
3.24686
3.08767
3.08772
3.08828
3.0907
2.94536
2.94541
2.94594
2.94815
2.8153
2.81533
2.81586
2.81782
2.69623
2.69626
2.69674
2.69848
2.58701
2.58707
2.58748
2.58899
2.48664
2.48672
2.48706
2.48835
2.3942
2.3943
2.39461
2.39564
2.30891
2.30901
2.30936
2.31003
2.23002
2.23013
2.23056
2.23082
2.15691
2.15699
2.15753
2.15739
2.08893
2.089
2.08958
2.08925
2.02561
2.02569
2.0263
2.02584
1.9665
1.96659
1.96723
1.96669
1.91122
1.91133
1.91199
1.9114
1.85941
1.85954
1.86021
1.85958
1.81074
1.81093
1.81158
1.81092
1.76494
1.76523
1.76579
1.76512
1.72173
1.72213
1.72259
1.72191
1.68089
1.68139
1.68175
1.68106
1.64219
1.64279
1.64304
1.64235
1.60546
1.60611
1.6063
1.60559
1.5705
1.57119
1.57133
1.5706
1.53717
1.53789
1.53799
1.53725
1.50535
1.50607
1.50614
1.50539
1.47492
1.47563
1.47567
1.47491
1.44581
1.44651
1.44654
1.44576
1.41798
1.41867
1.41868
1.4179
1.39135
1.392
1.39201
1.39122
1.36575
1.36637
1.36637
1.36559
1.34107
1.34165
1.34164
1.34089
1.31728
1.3178
1.31779
1.31705
1.29432
1.29478
1.29476
1.29404
1.27215
1.27253
1.27251
1.27182
1.25073
1.251
1.25102
1.25033
1.23003
1.23023
1.23024
1.22957
1.21
1.21014
1.21012
1.20947
1.19056
1.19067
1.19058
1.18995
1.17162
1.17167
1.17157
1.17094
1.15313
1.15313
1.15305
1.15241
1.13504
1.135
1.135
1.13432
1.11743
1.11736
1.11735
1.11664
1.10021
1.10011
1.10009
1.09935
1.08332
1.08321
1.08316
1.08239
1.06673
1.06664
1.06652
1.06573
1.05041
1.05041
1.05015
1.04934
1.03436
1.03427
1.0341
1.03319
1.01863
1.01825
1.01835
1.01727
1.00303
1.00263
1.00281
1.00158
0.987631
0.987186
0.987351
0.986127
0.972402
0.971909
0.972069
0.97085
0.957317
0.956771
0.956929
0.955706
0.942332
0.941743
0.941892
0.940659
0.927387
0.926793
0.926914
0.925674
0.912397
0.911908
0.911938
0.910723
0.897211
0.897117
0.896881
0.895786
0.882231
0.882305
0.881612
0.880862
0.867215
0.86723
0.866471
0.865842
0.852151
0.852016
0.851358
0.85076
0.837063
0.836544
0.836357
0.835653
0.822028
0.821463
0.821358
0.820602
0.807191
0.806632
0.806586
0.805769
0.792802
0.792282
0.792282
0.791407
0.779239
0.778777
0.778813
0.777891
0.767025
0.76662
0.766684
0.765735
0.756801
0.756433
0.756529
0.755574
0.749214
0.748944
0.749047
0.748105
0.74504
0.744795
0.744895
0.74398
)
;

boundaryField
{
    inlet
    {
        type            cyclic;
    }
    outlet
    {
        type            cyclic;
    }
    fixedWalls-bottom
    {
        beta1           0.075;
        blended         0;
        type            omegaWallFunction;
        value           uniform 4078.43;
    }
    fixedWalls-top
    {
        type            symmetry;
    }
    frontAndBack
    {
        type            empty;
    }
}


// ************************************************************************* //
