/*--------------------------------*- C++ -*----------------------------------*\
  =========                 |
  \\      /  F ield         | OpenFOAM: The Open Source CFD Toolbox
   \\    /   O peration     | Website:  https://openfoam.org
    \\  /    A nd           | Version:  10
     \\/     M anipulation  |
\*---------------------------------------------------------------------------*/
FoamFile
{
    format      ascii;
    class       volScalarField;
    location    "4011";
    object      p;
}
// * * * * * * * * * * * * * * * * * * * * * * * * * * * * * * * * * * * * * //

dimensions      [0 2 -2 0 0 0 0];

internalField   nonuniform List<scalar> 
400
(
5.4755e-13
-1.22316e-06
-1.08722e-06
1.36135e-07
6.6456e-10
-1.22269e-06
-1.08788e-06
1.35664e-07
1.47074e-09
-1.22216e-06
-1.08869e-06
1.35134e-07
2.26038e-09
-1.22165e-06
-1.08948e-06
1.34617e-07
2.88173e-09
-1.22121e-06
-1.0901e-06
1.3418e-07
3.02506e-09
-1.22104e-06
-1.09024e-06
1.34012e-07
2.21274e-09
-1.22099e-06
-1.08943e-06
1.33964e-07
-1.3766e-10
-1.21989e-06
-1.08708e-06
1.32863e-07
-4.57995e-09
-1.21631e-06
-1.08264e-06
1.29282e-07
-1.06253e-08
-1.21123e-06
-1.07659e-06
1.24201e-07
-1.76168e-08
-1.20579e-06
-1.0696e-06
1.18763e-07
-2.56786e-08
-1.19944e-06
-1.06154e-06
1.12409e-07
-3.4739e-08
-1.19213e-06
-1.05248e-06
1.05098e-07
-4.44986e-08
-1.18424e-06
-1.04272e-06
9.72112e-08
-5.45387e-08
-1.17618e-06
-1.03268e-06
8.91517e-08
-6.43937e-08
-1.16821e-06
-1.02282e-06
8.11757e-08
-7.3597e-08
-1.16042e-06
-1.01362e-06
7.33923e-08
-8.1752e-08
-1.1528e-06
-1.00546e-06
6.57698e-08
-8.86181e-08
-1.14518e-06
-9.98597e-07
5.81543e-08
-9.41383e-08
-1.13738e-06
-9.93077e-07
5.03469e-08
-9.83814e-08
-1.12923e-06
-9.88833e-07
4.21981e-08
-1.01451e-07
-1.1207e-06
-9.85763e-07
3.36684e-08
-1.03431e-07
-1.11184e-06
-9.83783e-07
2.48109e-08
-1.04385e-07
-1.10273e-06
-9.8283e-07
1.56972e-08
-1.04379e-07
-1.09339e-06
-9.82836e-07
6.35374e-09
-1.03507e-07
-1.08379e-06
-9.83707e-07
-3.24098e-09
-1.01901e-07
-1.07391e-06
-9.85313e-07
-1.31225e-08
-9.97271e-08
-1.06374e-06
-9.87487e-07
-2.32981e-08
-9.71561e-08
-1.0533e-06
-9.90057e-07
-3.37353e-08
-9.43383e-08
-1.04266e-06
-9.92875e-07
-4.43718e-08
-9.13872e-08
-1.0319e-06
-9.95826e-07
-5.51381e-08
-8.83788e-08
-1.02107e-06
-9.98834e-07
-6.5967e-08
-8.53494e-08
-1.01024e-06
-1.00186e-06
-7.67981e-08
-8.23021e-08
-9.99464e-07
-1.00491e-06
-8.75704e-08
-7.92144e-08
-9.88821e-07
-1.008e-06
-9.82126e-08
-7.60632e-08
-9.78407e-07
-1.01115e-06
-1.08627e-07
-7.28564e-08
-9.68353e-07
-1.01436e-06
-1.18681e-07
-6.9679e-08
-9.58826e-07
-1.01753e-06
-1.28209e-07
-6.67348e-08
-9.49976e-07
-1.02048e-06
-1.37059e-07
-6.43995e-08
-9.41832e-07
-1.02281e-06
-1.45203e-07
-6.32239e-08
-9.34109e-07
-1.02399e-06
-1.52926e-07
-6.38085e-08
-9.25967e-07
-1.0234e-06
-1.61069e-07
-6.64778e-08
-9.15812e-07
-1.02073e-06
-1.71224e-07
-7.07916e-08
-9.01335e-07
-1.01641e-06
-1.85701e-07
-7.51178e-08
-8.80325e-07
-1.01208e-06
-2.06712e-07
-7.69426e-08
-8.5342e-07
-1.01025e-06
-2.33616e-07
-7.47711e-08
-8.29075e-07
-1.01243e-06
-2.57959e-07
-7.06854e-08
-8.23219e-07
-1.01653e-06
-2.63815e-07
-6.74367e-08
-8.33866e-07
-1.01979e-06
-2.53171e-07
-6.59945e-08
-8.47116e-07
-1.02123e-06
-2.39923e-07
-6.7014e-08
-8.60419e-07
-1.0202e-06
-2.26622e-07
-7.08208e-08
-8.74296e-07
-1.01639e-06
-2.12747e-07
-7.75323e-08
-8.88964e-07
-1.00968e-06
-1.9808e-07
-8.69046e-08
-9.04294e-07
-1.0003e-06
-1.8275e-07
-9.84186e-08
-9.20146e-07
-9.88789e-07
-1.66898e-07
-1.11612e-07
-9.36366e-07
-9.75594e-07
-1.50678e-07
-1.26229e-07
-9.52685e-07
-9.60977e-07
-1.34357e-07
-1.42139e-07
-9.68791e-07
-9.45065e-07
-1.1825e-07
-1.592e-07
-9.84525e-07
-9.28003e-07
-1.02515e-07
-1.77241e-07
-9.99879e-07
-9.09961e-07
-8.71599e-08
-1.9594e-07
-1.01477e-06
-8.91262e-07
-7.22657e-08
-2.14879e-07
-1.02892e-06
-8.72323e-07
-5.81117e-08
-2.33787e-07
-1.04198e-06
-8.53414e-07
-4.50564e-08
-2.5256e-07
-1.05354e-06
-8.34641e-07
-3.34894e-08
-2.71089e-07
-1.06325e-06
-8.16112e-07
-2.37832e-08
-2.89079e-07
-1.07086e-06
-7.98121e-07
-1.61734e-08
-3.06049e-07
-1.07628e-06
-7.81152e-07
-1.07515e-08
-3.22295e-07
-1.07928e-06
-7.64906e-07
-7.75543e-09
-3.3877e-07
-1.07943e-06
-7.48432e-07
-7.60329e-09
-3.56298e-07
-1.07647e-06
-7.30905e-07
-1.05633e-08
-3.74763e-07
-1.07079e-06
-7.12439e-07
-1.6253e-08
-3.9324e-07
-1.06361e-06
-6.93962e-07
-2.3429e-08
-4.11017e-07
-1.05674e-06
-6.76185e-07
-3.03041e-08
-4.28661e-07
-1.05018e-06
-6.58541e-07
-3.68685e-08
-4.4736e-07
-1.04262e-06
-6.39843e-07
-4.44293e-08
-4.67631e-07
-1.03375e-06
-6.19572e-07
-5.32988e-08
-4.90393e-07
-1.02356e-06
-5.9681e-07
-6.34862e-08
-5.17071e-07
-1.01203e-06
-5.70131e-07
-7.50203e-08
-5.46002e-07
-9.99795e-07
-5.412e-07
-8.72527e-08
-5.73221e-07
-9.87686e-07
-5.1398e-07
-9.93604e-08
-5.99337e-07
-9.76636e-07
-4.87863e-07
-1.1041e-07
-6.26079e-07
-9.65992e-07
-4.61121e-07
-1.21052e-07
-6.52627e-07
-9.54108e-07
-4.34572e-07
-1.32935e-07
-6.7861e-07
-9.40792e-07
-4.08589e-07
-1.46251e-07
-7.04176e-07
-9.26208e-07
-3.83023e-07
-1.60836e-07
-7.29654e-07
-9.10899e-07
-3.57545e-07
-1.76146e-07
-7.55705e-07
-8.96342e-07
-3.31495e-07
-1.90702e-07
-7.83637e-07
-8.84217e-07
-3.03562e-07
-2.02822e-07
-8.13793e-07
-8.7076e-07
-2.73403e-07
-2.16273e-07
-8.43479e-07
-8.5301e-07
-2.43712e-07
-2.34023e-07
-8.68996e-07
-8.3393e-07
-2.18192e-07
-2.53107e-07
-8.87258e-07
-8.16464e-07
-1.99928e-07
-2.70577e-07
-8.9997e-07
-8.01669e-07
-1.87219e-07
-2.85375e-07
-9.11126e-07
-7.89358e-07
-1.76064e-07
-2.97688e-07
-9.21471e-07
-7.79643e-07
-1.6572e-07
-3.07404e-07
-9.30708e-07
-7.72517e-07
-1.56484e-07
-3.1453e-07
-9.38442e-07
-7.67669e-07
-1.48751e-07
-3.19378e-07
-9.44317e-07
-7.64634e-07
-1.42876e-07
-3.22412e-07
-9.48207e-07
-7.63063e-07
-1.38988e-07
-3.23982e-07
-9.50454e-07
-7.6245e-07
-1.36741e-07
-3.24595e-07
)
;

boundaryField
{
    inlet
    {
        type            cyclic;
    }
    outlet
    {
        type            cyclic;
    }
    fixedWalls-bottom
    {
        type            zeroGradient;
    }
    fixedWalls-top
    {
        type            symmetry;
    }
    frontAndBack
    {
        type            empty;
    }
}


// ************************************************************************* //
