/*--------------------------------*- C++ -*----------------------------------*\
  =========                 |
  \\      /  F ield         | OpenFOAM: The Open Source CFD Toolbox
   \\    /   O peration     | Website:  https://openfoam.org
    \\  /    A nd           | Version:  10
     \\/     M anipulation  |
\*---------------------------------------------------------------------------*/
FoamFile
{
    format      ascii;
    class       surfaceScalarField;
    location    "4011";
    object      phi;
}
// * * * * * * * * * * * * * * * * * * * * * * * * * * * * * * * * * * * * * //

dimensions      [0 3 -1 0 0 0 0];

internalField   nonuniform List<scalar> 
696
(
0.000292302
5.47964e-09
0.000292296
5.11188e-09
0.000292302
-5.50221e-09
-5.11172e-09
0.000890669
2.34769e-08
0.000890655
1.92812e-08
0.000890673
-2.34989e-08
-1.92807e-08
0.00151097
5.5681e-08
0.00151095
4.14727e-08
0.00151098
-5.57021e-08
-4.14719e-08
0.00215055
1.03681e-07
0.00215053
6.99538e-08
0.00215057
-1.03701e-07
-6.99528e-08
0.00279895
1.67575e-07
0.00279892
1.00865e-07
0.00279899
-1.67594e-07
-1.00864e-07
0.00343543
2.44147e-07
0.0034354
1.2723e-07
0.00343548
-2.44166e-07
-1.27229e-07
0.00403714
3.26703e-07
0.00403712
1.42362e-07
0.00403721
-3.26721e-07
-1.42361e-07
0.00459128
4.07101e-07
0.00459128
1.4714e-07
0.00459136
-4.07119e-07
-1.47138e-07
0.0050972
4.76631e-07
0.0050972
1.50958e-07
0.00509727
-4.76648e-07
-1.50956e-07
0.00556274
5.3286e-07
0.00556274
1.54344e-07
0.0055628
-5.32877e-07
-1.54342e-07
0.00599597
5.76764e-07
0.00599597
1.53754e-07
0.00599601
-5.76781e-07
-1.53752e-07
0.00640211
6.07993e-07
0.00640212
1.50054e-07
0.00640215
-6.0801e-07
-1.50052e-07
0.0067856
6.26614e-07
0.00678561
1.43929e-07
0.00678563
-6.26631e-07
-1.43926e-07
0.00715022
6.33371e-07
0.00715023
1.35322e-07
0.00715024
-6.33387e-07
-1.35319e-07
0.0074992
6.29687e-07
0.00749921
1.23763e-07
0.00749921
-6.29703e-07
-1.23761e-07
0.00783523
6.17523e-07
0.00783524
1.0879e-07
0.00783523
-6.17539e-07
-1.08788e-07
0.00816054
5.99185e-07
0.00816056
9.02016e-08
0.00816054
-5.99201e-07
-9.01988e-08
0.00847697
5.77054e-07
0.00847699
6.8206e-08
0.00847697
-5.77069e-07
-6.82032e-08
0.00878608
5.5325e-07
0.0087861
4.34848e-08
0.00878608
-5.53265e-07
-4.34819e-08
0.00908915
5.29374e-07
0.00908917
1.70708e-08
0.00908915
-5.29389e-07
-1.70678e-08
0.00938729
5.06452e-07
0.00938731
-9.88245e-09
0.00938729
-5.06467e-07
9.88543e-09
0.00968143
4.85064e-07
0.00968146
-3.63594e-08
0.00968144
-4.85078e-07
3.63624e-08
0.00997241
4.6552e-07
0.00997243
-6.16256e-08
0.00997241
-4.65534e-07
6.16286e-08
0.0102609
4.47988e-07
0.0102609
-8.52169e-08
0.0102609
-4.48002e-07
8.52199e-08
0.0105476
4.32548e-07
0.0105476
-1.06826e-07
0.0105476
-4.32562e-07
1.06829e-07
0.0108329
4.19194e-07
0.010833
-1.26218e-07
0.010833
-4.19208e-07
1.26221e-07
0.0111175
4.07822e-07
0.0111175
-1.43193e-07
0.0111175
-4.07836e-07
1.43196e-07
0.0114018
3.98209e-07
0.0114018
-1.57619e-07
0.0114018
-3.98223e-07
1.57622e-07
0.0116861
3.90046e-07
0.0116861
-1.69454e-07
0.0116861
-3.9006e-07
1.69457e-07
0.0119709
3.82975e-07
0.0119709
-1.78764e-07
0.0119709
-3.82988e-07
1.78767e-07
0.0122565
3.76642e-07
0.0122565
-1.857e-07
0.0122565
-3.76655e-07
1.85703e-07
0.0125432
3.70738e-07
0.0125432
-1.90472e-07
0.0125432
-3.70751e-07
1.90475e-07
0.0128314
3.65032e-07
0.0128314
-1.93329e-07
0.0128314
-3.65045e-07
1.93332e-07
0.0131212
3.59389e-07
0.0131212
-1.94547e-07
0.0131212
-3.59401e-07
1.9455e-07
0.0134131
3.5378e-07
0.0134131
-1.94435e-07
0.0134131
-3.53792e-07
1.94438e-07
0.0137071
3.48257e-07
0.0137071
-1.93369e-07
0.0137071
-3.48269e-07
1.93372e-07
0.0140036
3.42902e-07
0.0140036
-1.91827e-07
0.0140036
-3.42914e-07
1.9183e-07
0.0143028
3.37711e-07
0.0143028
-1.90421e-07
0.0143028
-3.37723e-07
1.90424e-07
0.0146048
3.32456e-07
0.0146048
-1.89871e-07
0.0146047
-3.32467e-07
1.89874e-07
0.0149098
3.26483e-07
0.0149098
-1.9086e-07
0.0149098
-3.26494e-07
1.90862e-07
0.0152179
3.18539e-07
0.0152179
-1.93674e-07
0.0152179
-3.1855e-07
1.93677e-07
0.0155294
3.06735e-07
0.0155294
-1.97626e-07
0.0155294
-3.06746e-07
1.97629e-07
0.0158443
2.88873e-07
0.0158443
-2.00311e-07
0.0158443
-2.88884e-07
2.00313e-07
0.0161627
2.63233e-07
0.0161627
-1.97059e-07
0.0161627
-2.63244e-07
1.97062e-07
0.0164848
2.29776e-07
0.0164848
-1.81233e-07
0.0164847
-2.29787e-07
1.81236e-07
0.0168105
1.91182e-07
0.0168105
-1.46423e-07
0.0168105
-1.91193e-07
1.46426e-07
0.0171402
1.525e-07
0.0171401
-9.19061e-08
0.0171401
-1.5251e-07
9.19089e-08
0.0174741
1.17442e-07
0.017474
-3.2903e-08
0.017474
-1.17453e-07
3.29057e-08
0.0178125
8.75622e-08
0.0178124
1.78788e-08
0.0178124
-8.75723e-08
-1.78762e-08
0.0181558
6.36676e-08
0.0181557
6.1382e-08
0.0181557
-6.36775e-08
-6.13795e-08
0.0185041
4.55564e-08
0.018504
9.85046e-08
0.018504
-4.5566e-08
-9.85022e-08
0.0188575
3.25256e-08
0.0188575
1.29979e-07
0.0188574
-3.2535e-08
-1.29976e-07
0.0192162
2.35811e-08
0.0192161
1.56372e-07
0.0192161
-2.35903e-08
-1.56369e-07
0.0195802
1.77961e-08
0.0195802
1.78101e-07
0.0195802
-1.78051e-08
-1.78099e-07
0.0199498
1.45773e-08
0.0199498
1.95429e-07
0.0199498
-1.45861e-08
-1.95427e-07
0.020325
1.35991e-08
0.020325
2.08522e-07
0.020325
-1.36077e-08
-2.0852e-07
0.020706
1.46189e-08
0.020706
2.17573e-07
0.020706
-1.46273e-08
-2.17571e-07
0.0210929
1.73544e-08
0.0210929
2.22873e-07
0.0210929
-1.73626e-08
-2.22871e-07
0.0214858
2.15144e-08
0.0214858
2.2467e-07
0.0214858
-2.15224e-08
-2.24668e-07
0.0218848
2.67891e-08
0.0218848
2.23042e-07
0.0218848
-2.6797e-08
-2.2304e-07
0.0222901
3.29828e-08
0.0222901
2.17971e-07
0.0222901
-3.29905e-08
-2.17969e-07
0.0227017
4.01175e-08
0.0227017
2.09561e-07
0.0227017
-4.0125e-08
-2.09559e-07
0.0231199
4.82724e-08
0.0231199
1.98093e-07
0.0231199
-4.82798e-08
-1.98091e-07
0.0235446
5.74483e-08
0.0235446
1.84063e-07
0.0235446
-5.74556e-08
-1.84062e-07
0.0239761
6.75812e-08
0.0239761
1.68201e-07
0.0239761
-6.75883e-08
-1.682e-07
0.0244144
7.86954e-08
0.0244144
1.51373e-07
0.0244144
-7.87024e-08
-1.51372e-07
0.0248596
9.13064e-08
0.0248596
1.34409e-07
0.0248597
-9.13133e-08
-1.34407e-07
0.0253119
1.05591e-07
0.0253119
1.18251e-07
0.0253119
-1.05597e-07
-1.18249e-07
0.0257714
1.208e-07
0.0257714
1.04145e-07
0.0257714
-1.20807e-07
-1.04144e-07
0.0262381
1.35411e-07
0.0262381
9.35824e-08
0.0262381
-1.35418e-07
-9.3581e-08
0.0267122
1.48219e-07
0.0267122
8.77703e-08
0.0267122
-1.48225e-07
-8.77688e-08
0.0271937
1.59369e-07
0.0271937
8.69604e-08
0.0271937
-1.59375e-07
-8.69589e-08
0.0276828
1.70334e-07
0.0276828
8.9346e-08
0.0276828
-1.7034e-07
-8.93444e-08
0.0281795
1.82317e-07
0.0281795
9.30656e-08
0.0281795
-1.82324e-07
-9.3064e-08
0.0286839
1.95147e-07
0.0286839
9.78838e-08
0.0286839
-1.95153e-07
-9.78821e-08
0.029196
2.08307e-07
0.029196
1.03547e-07
0.029196
-2.08313e-07
-1.03545e-07
0.0297159
2.2046e-07
0.0297159
1.09706e-07
0.0297159
-2.20466e-07
-1.09704e-07
0.0302437
2.27903e-07
0.0302437
1.16332e-07
0.0302437
-2.27909e-07
-1.16329e-07
0.0307793
2.28485e-07
0.0307793
1.22953e-07
0.0307793
-2.28492e-07
-1.22951e-07
0.0313227
2.26224e-07
0.0313227
1.28916e-07
0.0313227
-2.2623e-07
-1.28914e-07
0.0318739
2.23705e-07
0.0318739
1.32392e-07
0.0318739
-2.23712e-07
-1.32389e-07
0.0324328
2.20471e-07
0.0324328
1.32332e-07
0.0324328
-2.20477e-07
-1.32329e-07
0.0329994
2.17504e-07
0.0329994
1.30359e-07
0.0329994
-2.17511e-07
-1.30356e-07
0.0335736
2.15704e-07
0.0335736
1.27973e-07
0.0335736
-2.1571e-07
-1.2797e-07
0.034155
2.15636e-07
0.034155
1.26375e-07
0.034155
-2.15642e-07
-1.26371e-07
0.0347436
2.17543e-07
0.0347436
1.25793e-07
0.0347436
-2.1755e-07
-1.25789e-07
0.035339
2.20982e-07
0.035339
1.24173e-07
0.035339
-2.20989e-07
-1.24169e-07
0.0359408
2.22706e-07
0.0359408
1.14318e-07
0.0359408
-2.22713e-07
-1.14314e-07
0.0365486
2.16513e-07
0.0365486
9.61581e-08
0.0365486
-2.16519e-07
-9.61539e-08
0.0371618
1.98935e-07
0.0371619
7.71733e-08
0.0371618
-1.98941e-07
-7.71692e-08
0.0377799
1.71423e-07
0.0377799
6.09807e-08
0.0377799
-1.71428e-07
-6.09767e-08
0.038402
1.42501e-07
0.038402
4.85888e-08
0.038402
-1.42505e-07
-4.85853e-08
0.0390273
1.18342e-07
0.0390273
3.98553e-08
0.0390272
-1.18346e-07
-3.98522e-08
0.0396548
9.73588e-08
0.0396548
3.45498e-08
0.0396548
-9.73622e-08
-3.45472e-08
0.0402835
7.81736e-08
0.0402835
3.11836e-08
0.0402835
-7.81763e-08
-3.11816e-08
0.0409123
6.0108e-08
0.0409123
2.79391e-08
0.0409123
-6.01099e-08
-2.79376e-08
0.0415401
4.31102e-08
0.0415401
2.34991e-08
0.0415401
-4.31115e-08
-2.3498e-08
0.0421656
2.75312e-08
0.0421656
1.74219e-08
0.0421656
-2.7532e-08
-1.74212e-08
0.0427878
1.3508e-08
0.0427878
9.48926e-09
0.0427878
-1.35083e-08
-9.489e-09
0.0434055
0.0434055
0.0434055
)
;

boundaryField
{
    inlet
    {
        type            cyclic;
        value           nonuniform List<scalar> 
100
(
-0.0434055
-0.0427878
-0.0421656
-0.0415401
-0.0409123
-0.0402835
-0.0396548
-0.0390272
-0.0384019
-0.0377799
-0.0371618
-0.0365486
-0.0359408
-0.035339
-0.0347436
-0.034155
-0.0335736
-0.0329994
-0.0324328
-0.0318739
-0.0313227
-0.0307793
-0.0302437
-0.0297159
-0.029196
-0.0286839
-0.0281795
-0.0276828
-0.0271937
-0.0267122
-0.0262381
-0.0257714
-0.0253119
-0.0248596
-0.0244144
-0.0239761
-0.0235446
-0.0231199
-0.0227017
-0.0222901
-0.0218848
-0.0214858
-0.0210929
-0.020706
-0.020325
-0.0199498
-0.0195802
-0.0192162
-0.0188575
-0.0185041
-0.0181558
-0.0178125
-0.017474
-0.0171402
-0.0168105
-0.0164847
-0.0161627
-0.0158443
-0.0155294
-0.0152179
-0.0149098
-0.0146047
-0.0143028
-0.0140036
-0.0137071
-0.0134131
-0.0131212
-0.0128314
-0.0125432
-0.0122565
-0.0119709
-0.0116861
-0.0114018
-0.0111175
-0.0108329
-0.0105476
-0.0102609
-0.00997239
-0.00968141
-0.00938726
-0.00908912
-0.00878605
-0.00847695
-0.00816052
-0.00783522
-0.0074992
-0.00715023
-0.00678562
-0.00640214
-0.00599601
-0.0055628
-0.00509727
-0.00459136
-0.00403722
-0.0034355
-0.00279902
-0.0021506
-0.001511
-0.000890687
-0.000292307
)
;
    }
    outlet
    {
        type            cyclic;
        value           nonuniform List<scalar> 
100
(
0.0434055
0.0427878
0.0421656
0.0415401
0.0409123
0.0402835
0.0396548
0.0390272
0.0384019
0.0377799
0.0371618
0.0365486
0.0359408
0.035339
0.0347436
0.034155
0.0335736
0.0329994
0.0324328
0.0318739
0.0313227
0.0307793
0.0302437
0.0297159
0.029196
0.0286839
0.0281795
0.0276828
0.0271937
0.0267122
0.0262381
0.0257714
0.0253119
0.0248596
0.0244144
0.0239761
0.0235446
0.0231199
0.0227017
0.0222901
0.0218848
0.0214858
0.0210929
0.020706
0.020325
0.0199498
0.0195802
0.0192162
0.0188575
0.0185041
0.0181558
0.0178125
0.017474
0.0171402
0.0168105
0.0164847
0.0161627
0.0158443
0.0155294
0.0152179
0.0149098
0.0146047
0.0143028
0.0140036
0.0137071
0.0134131
0.0131212
0.0128314
0.0125432
0.0122565
0.0119709
0.0116861
0.0114018
0.0111175
0.0108329
0.0105476
0.0102609
0.00997239
0.00968141
0.00938726
0.00908912
0.00878605
0.00847695
0.00816052
0.00783522
0.0074992
0.00715023
0.00678562
0.00640214
0.00599601
0.0055628
0.00509727
0.00459136
0.00403722
0.0034355
0.00279902
0.0021506
0.001511
0.000890687
0.000292307
)
;
    }
    fixedWalls-bottom
    {
        type            calculated;
        value           uniform 0;
    }
    fixedWalls-top
    {
        type            symmetry;
        value           uniform 0;
    }
    frontAndBack
    {
        type            empty;
        value           nonuniform List<scalar> 0();
    }
}


// ************************************************************************* //
