/*--------------------------------*- C++ -*----------------------------------*\
  =========                 |
  \\      /  F ield         | OpenFOAM: The Open Source CFD Toolbox
   \\    /   O peration     | Website:  https://openfoam.org
    \\  /    A nd           | Version:  10
     \\/     M anipulation  |
\*---------------------------------------------------------------------------*/
FoamFile
{
    format      ascii;
    class       volVectorField;
    location    "4011";
    object      U;
}
// * * * * * * * * * * * * * * * * * * * * * * * * * * * * * * * * * * * * * //

dimensions      [0 1 -1 0 0 0 0];

internalField   nonuniform List<vector> 
400
(
(0.0316779 5.69424e-10 0)
(0.0316766 8.97933e-10 0)
(0.0316768 -5.80526e-10 0)
(0.0316779 -8.97842e-10 0)
(0.095183 1.1659e-08 0)
(0.0951793 1.03989e-08 0)
(0.0951801 -1.16836e-08 0)
(0.0951832 -1.03986e-08 0)
(0.159228 3.60822e-08 0)
(0.159221 2.8567e-08 0)
(0.159223 -3.61053e-08 0)
(0.159228 -2.85664e-08 0)
(0.223476 7.61327e-08 0)
(0.223467 5.48163e-08 0)
(0.22347 -7.61538e-08 0)
(0.223477 -5.48155e-08 0)
(0.28681 1.32723e-07 0)
(0.2868 8.59852e-08 0)
(0.286804 -1.32742e-07 0)
(0.286813 -8.59842e-08 0)
(0.347134 2.044e-07 0)
(0.347123 1.15341e-07 0)
(0.347128 -2.04419e-07 0)
(0.347138 -1.1534e-07 0)
(0.40226 2.85858e-07 0)
(0.402251 1.35581e-07 0)
(0.402257 -2.85877e-07 0)
(0.402267 -1.3558e-07 0)
(0.451112 3.68975e-07 0)
(0.451105 1.45772e-07 0)
(0.451111 -3.68995e-07 0)
(0.451121 -1.4577e-07 0)
(0.493855 4.43757e-07 0)
(0.49385 1.51886e-07 0)
(0.493854 -4.43775e-07 0)
(0.493864 -1.51884e-07 0)
(0.531464 5.0803e-07 0)
(0.531461 1.52974e-07 0)
(0.531464 -5.08047e-07 0)
(0.531472 -1.52973e-07 0)
(0.564888 5.58037e-07 0)
(0.564886 1.54729e-07 0)
(0.564888 -5.58055e-07 0)
(0.564894 -1.54727e-07 0)
(0.594764 5.95391e-07 0)
(0.594763 1.52898e-07 0)
(0.594765 -5.95408e-07 0)
(0.594769 -1.52896e-07 0)
(0.621624 6.20108e-07 0)
(0.621624 1.4796e-07 0)
(0.621626 -6.20124e-07 0)
(0.621627 -1.47958e-07 0)
(0.645918 6.32497e-07 0)
(0.645919 1.40513e-07 0)
(0.64592 -6.32513e-07 0)
(0.64592 -1.4051e-07 0)
(0.668023 6.3361e-07 0)
(0.668024 1.30413e-07 0)
(0.668025 -6.33626e-07 0)
(0.668023 -1.3041e-07 0)
(0.68825 6.25175e-07 0)
(0.688252 1.1713e-07 0)
(0.688253 -6.25191e-07 0)
(0.68825 -1.17127e-07 0)
(0.706858 6.09402e-07 0)
(0.70686 1.00262e-07 0)
(0.706861 -6.09418e-07 0)
(0.706857 -1.00259e-07 0)
(0.724056 5.88692e-07 0)
(0.724059 7.98069e-08 0)
(0.72406 -5.88707e-07 0)
(0.724055 -7.98041e-08 0)
(0.740023 5.65329e-07 0)
(0.740026 5.62324e-08 0)
(0.740027 -5.65344e-07 0)
(0.740022 -5.62295e-08 0)
(0.754904 5.4119e-07 0)
(0.754907 3.04253e-08 0)
(0.754909 -5.41205e-07 0)
(0.754904 -3.04224e-08 0)
(0.768825 5.1759e-07 0)
(0.768828 3.51243e-09 0)
(0.768829 -5.17605e-07 0)
(0.768824 -3.50949e-09 0)
(0.78189 4.95316e-07 0)
(0.781893 -2.34007e-08 0)
(0.781894 -4.95331e-07 0)
(0.78189 2.34036e-08 0)
(0.79419 4.74792e-07 0)
(0.794193 -4.94284e-08 0)
(0.794194 -4.74806e-07 0)
(0.79419 4.94314e-08 0)
(0.805803 4.56232e-07 0)
(0.805806 -7.39654e-08 0)
(0.805807 -4.56246e-07 0)
(0.805803 7.39684e-08 0)
(0.816797 4.3975e-07 0)
(0.8168 -9.66357e-08 0)
(0.816801 -4.39764e-07 0)
(0.816797 9.66387e-08 0)
(0.827232 4.25381e-07 0)
(0.827234 -1.17178e-07 0)
(0.827235 -4.25395e-07 0)
(0.827232 1.17181e-07 0)
(0.837158 4.13066e-07 0)
(0.83716 -1.35382e-07 0)
(0.837161 -4.13079e-07 0)
(0.837159 1.35385e-07 0)
(0.846624 4.02638e-07 0)
(0.846626 -1.51085e-07 0)
(0.846627 -4.02651e-07 0)
(0.846625 1.51088e-07 0)
(0.855671 3.93827e-07 0)
(0.855673 -1.642e-07 0)
(0.855673 -3.9384e-07 0)
(0.855671 1.64203e-07 0)
(0.864335 3.86289e-07 0)
(0.864337 -1.74737e-07 0)
(0.864337 -3.86302e-07 0)
(0.864336 1.7474e-07 0)
(0.87265 3.79661e-07 0)
(0.872652 -1.82809e-07 0)
(0.872651 -3.79674e-07 0)
(0.872651 1.82812e-07 0)
(0.880646 3.73602e-07 0)
(0.880647 -1.88599e-07 0)
(0.880647 -3.73615e-07 0)
(0.880647 1.88602e-07 0)
(0.88835 3.67835e-07 0)
(0.888351 -1.92342e-07 0)
(0.888351 -3.67848e-07 0)
(0.88835 1.92345e-07 0)
(0.895786 3.62177e-07 0)
(0.895787 -1.94298e-07 0)
(0.895787 -3.6219e-07 0)
(0.895786 1.94301e-07 0)
(0.902977 3.56549e-07 0)
(0.902977 -1.94755e-07 0)
(0.902977 -3.56562e-07 0)
(0.902977 1.94758e-07 0)
(0.909941 3.50976e-07 0)
(0.909941 -1.94051e-07 0)
(0.909941 -3.50988e-07 0)
(0.909941 1.94054e-07 0)
(0.916697 3.45544e-07 0)
(0.916697 -1.92606e-07 0)
(0.916697 -3.45556e-07 0)
(0.916697 1.92609e-07 0)
(0.92326 3.40322e-07 0)
(0.92326 -1.90976e-07 0)
(0.92326 -3.40334e-07 0)
(0.92326 1.90979e-07 0)
(0.929645 3.35239e-07 0)
(0.929645 -1.89861e-07 0)
(0.929644 -3.35251e-07 0)
(0.929644 1.89864e-07 0)
(0.935862 3.29882e-07 0)
(0.935863 -1.90035e-07 0)
(0.935862 -3.29894e-07 0)
(0.935862 1.90037e-07 0)
(0.941924 3.23294e-07 0)
(0.941924 -1.921e-07 0)
(0.941924 -3.23305e-07 0)
(0.941923 1.92103e-07 0)
(0.947837 3.13832e-07 0)
(0.947838 -1.96003e-07 0)
(0.947837 -3.13844e-07 0)
(0.947837 1.96006e-07 0)
(0.953609 2.99297e-07 0)
(0.953611 -2.00293e-07 0)
(0.95361 -2.99308e-07 0)
(0.953609 2.00296e-07 0)
(0.959247 2.77534e-07 0)
(0.959248 -2.01252e-07 0)
(0.959246 -2.77544e-07 0)
(0.959245 2.01255e-07 0)
(0.964755 2.47605e-07 0)
(0.964756 -1.92407e-07 0)
(0.964753 -2.47615e-07 0)
(0.964752 1.9241e-07 0)
(0.970139 2.11075e-07 0)
(0.97014 -1.6606e-07 0)
(0.970135 -2.11085e-07 0)
(0.970136 1.66063e-07 0)
(0.97541 1.71988e-07 0)
(0.97541 -1.19553e-07 0)
(0.975404 -1.72002e-07 0)
(0.975406 1.19556e-07 0)
(0.980582 1.33969e-07 0)
(0.980581 -6.50073e-08 0)
(0.980575 -1.33981e-07 0)
(0.980577 6.50097e-08 0)
(0.985675 1.01096e-07 0)
(0.985674 -6.63277e-09 0)
(0.985669 -1.01104e-07 0)
(0.985671 6.63531e-09 0)
(0.990701 7.41013e-08 0)
(0.9907 4.15916e-08 0)
(0.990696 -7.41107e-08 0)
(0.990697 -4.15891e-08 0)
(0.995665 5.32001e-08 0)
(0.995664 8.16789e-08 0)
(0.995661 -5.32099e-08 0)
(0.995662 -8.16765e-08 0)
(1.00057 3.78248e-08 0)
(1.00057 1.15658e-07 0)
(1.00057 -3.78344e-08 0)
(1.00057 -1.15655e-07 0)
(1.00543 2.7013e-08 0)
(1.00542 1.44437e-07 0)
(1.00542 -2.70223e-08 0)
(1.00542 -1.44435e-07 0)
(1.01023 1.98437e-08 0)
(1.01023 1.68406e-07 0)
(1.01023 -1.98528e-08 0)
(1.01023 -1.68404e-07 0)
(1.01498 1.54931e-08 0)
(1.01498 1.8786e-07 0)
(1.01498 -1.5502e-08 0)
(1.01498 -1.87858e-07 0)
(1.01969 1.35177e-08 0)
(1.01969 2.02983e-07 0)
(1.01969 -1.35264e-08 0)
(1.01969 -2.02981e-07 0)
(1.02436 1.36109e-08 0)
(1.02436 2.13997e-07 0)
(1.02436 -1.36193e-08 0)
(1.02436 -2.13996e-07 0)
(1.02899 1.55651e-08 0)
(1.02899 2.21129e-07 0)
(1.02899 -1.55734e-08 0)
(1.02899 -2.21128e-07 0)
(1.03358 1.90805e-08 0)
(1.03358 2.2464e-07 0)
(1.03358 -1.90887e-08 0)
(1.03358 -2.24638e-07 0)
(1.03814 2.38263e-08 0)
(1.03814 2.24667e-07 0)
(1.03814 -2.38343e-08 0)
(1.03814 -2.24665e-07 0)
(1.04266 2.95927e-08 0)
(1.04266 2.21267e-07 0)
(1.04266 -2.96004e-08 0)
(1.04266 -2.21265e-07 0)
(1.04715 3.62921e-08 0)
(1.04715 2.14465e-07 0)
(1.04715 -3.62997e-08 0)
(1.04715 -2.14463e-07 0)
(1.05161 4.3946e-08 0)
(1.05161 2.0441e-07 0)
(1.05161 -4.39535e-08 0)
(1.05161 -2.04408e-07 0)
(1.05604 5.26093e-08 0)
(1.05604 1.91517e-07 0)
(1.05604 -5.26167e-08 0)
(1.05604 -1.91516e-07 0)
(1.06044 6.22119e-08 0)
(1.06044 1.76401e-07 0)
(1.06044 -6.22191e-08 0)
(1.06044 -1.764e-07 0)
(1.06481 7.27886e-08 0)
(1.06481 1.59854e-07 0)
(1.06481 -7.27956e-08 0)
(1.06481 -1.59853e-07 0)
(1.06915 8.48429e-08 0)
(1.06915 1.42665e-07 0)
(1.06915 -8.48498e-08 0)
(1.06915 -1.42664e-07 0)
(1.07346 9.83556e-08 0)
(1.07346 1.25835e-07 0)
(1.07346 -9.83624e-08 0)
(1.07346 -1.25834e-07 0)
(1.07775 1.13359e-07 0)
(1.07775 1.10436e-07 0)
(1.07775 -1.13366e-07 0)
(1.07775 -1.10435e-07 0)
(1.08201 1.28278e-07 0)
(1.08201 9.79876e-08 0)
(1.08201 -1.28285e-07 0)
(1.08201 -9.79862e-08 0)
(1.08624 1.42135e-07 0)
(1.08624 8.98084e-08 0)
(1.08624 -1.42142e-07 0)
(1.08624 -8.9807e-08 0)
(1.09045 1.53991e-07 0)
(1.09045 8.6706e-08 0)
(1.09045 -1.53998e-07 0)
(1.09045 -8.67045e-08 0)
(1.09462 1.65147e-07 0)
(1.09462 8.72233e-08 0)
(1.09462 -1.65154e-07 0)
(1.09462 -8.72219e-08 0)
(1.09877 1.76287e-07 0)
(1.09877 9.07316e-08 0)
(1.09877 -1.76294e-07 0)
(1.09877 -9.073e-08 0)
(1.10288 1.88733e-07 0)
(1.10288 9.52446e-08 0)
(1.10288 -1.88739e-07 0)
(1.10288 -9.52429e-08 0)
(1.10696 2.02197e-07 0)
(1.10696 1.00555e-07 0)
(1.10696 -2.02204e-07 0)
(1.10697 -1.00554e-07 0)
(1.11101 2.15379e-07 0)
(1.11101 1.06564e-07 0)
(1.11101 -2.15385e-07 0)
(1.11101 -1.06563e-07 0)
(1.11502 2.2454e-07 0)
(1.11502 1.13308e-07 0)
(1.11502 -2.24546e-07 0)
(1.11502 -1.13306e-07 0)
(1.11898 2.28712e-07 0)
(1.11899 1.1994e-07 0)
(1.11898 -2.28719e-07 0)
(1.11899 -1.19938e-07 0)
(1.12291 2.28663e-07 0)
(1.12291 1.2664e-07 0)
(1.12291 -2.2867e-07 0)
(1.12291 -1.26637e-07 0)
(1.12678 2.24943e-07 0)
(1.12678 1.30779e-07 0)
(1.12678 -2.24949e-07 0)
(1.12678 -1.30777e-07 0)
(1.13059 2.21865e-07 0)
(1.13059 1.32861e-07 0)
(1.13059 -2.21871e-07 0)
(1.13059 -1.32858e-07 0)
(1.13435 2.18781e-07 0)
(1.13435 1.31658e-07 0)
(1.13435 -2.18787e-07 0)
(1.13435 -1.31655e-07 0)
(1.13804 2.16317e-07 0)
(1.13804 1.29164e-07 0)
(1.13804 -2.16323e-07 0)
(1.13804 -1.29161e-07 0)
(1.14165 2.15334e-07 0)
(1.14165 1.27189e-07 0)
(1.14165 -2.1534e-07 0)
(1.14165 -1.27185e-07 0)
(1.14517 2.16466e-07 0)
(1.14517 1.26735e-07 0)
(1.14517 -2.16472e-07 0)
(1.14517 -1.26732e-07 0)
(1.1486 2.19716e-07 0)
(1.1486 1.26231e-07 0)
(1.1486 -2.19722e-07 0)
(1.1486 -1.26227e-07 0)
(1.15192 2.22559e-07 0)
(1.15192 1.18885e-07 0)
(1.15192 -2.22565e-07 0)
(1.15192 -1.18882e-07 0)
(1.15511 2.20485e-07 0)
(1.15511 1.07077e-07 0)
(1.15511 -2.20492e-07 0)
(1.15511 -1.07071e-07 0)
(1.15816 2.09115e-07 0)
(1.15816 8.77706e-08 0)
(1.15816 -2.09121e-07 0)
(1.15816 -8.77657e-08 0)
(1.16105 1.8571e-07 0)
(1.16105 6.91824e-08 0)
(1.16105 -1.85716e-07 0)
(1.16105 -6.91788e-08 0)
(1.16375 1.58561e-07 0)
(1.16376 5.36855e-08 0)
(1.16375 -1.58566e-07 0)
(1.16375 -5.36824e-08 0)
(1.16626 1.30171e-07 0)
(1.16626 4.32373e-08 0)
(1.16626 -1.30175e-07 0)
(1.16626 -4.32336e-08 0)
(1.16853 1.07104e-07 0)
(1.16853 3.65375e-08 0)
(1.16853 -1.07108e-07 0)
(1.16853 -3.65346e-08 0)
(1.17055 8.71719e-08 0)
(1.17055 3.25175e-08 0)
(1.17055 -8.71748e-08 0)
(1.17055 -3.25153e-08 0)
(1.17229 6.86402e-08 0)
(1.17229 2.94826e-08 0)
(1.17229 -6.86425e-08 0)
(1.17229 -2.94809e-08 0)
(1.17373 5.10868e-08 0)
(1.17373 2.58476e-08 0)
(1.17373 -5.10883e-08 0)
(1.17373 -2.58464e-08 0)
(1.17484 3.4904e-08 0)
(1.17484 2.07115e-08 0)
(1.17484 -3.49051e-08 0)
(1.17484 -2.07107e-08 0)
(1.1756 2.04675e-08 0)
(1.1756 1.34941e-08 0)
(1.1756 -2.04679e-08 0)
(1.17559 -1.3494e-08 0)
(1.17598 6.86342e-09 0)
(1.17598 4.72655e-09 0)
(1.17598 -6.86342e-09 0)
(1.17598 -4.72658e-09 0)
)
;

boundaryField
{
    inlet
    {
        type            cyclic;
    }
    outlet
    {
        type            cyclic;
    }
    fixedWalls-bottom
    {
        type            noSlip;
    }
    fixedWalls-top
    {
        type            symmetry;
    }
    frontAndBack
    {
        type            empty;
    }
}


// ************************************************************************* //
