/*--------------------------------*- C++ -*----------------------------------*\
  =========                 |
  \\      /  F ield         | OpenFOAM: The Open Source CFD Toolbox
   \\    /   O peration     | Website:  https://openfoam.org
    \\  /    A nd           | Version:  10
     \\/     M anipulation  |
\*---------------------------------------------------------------------------*/
FoamFile
{
    format      ascii;
    class       volScalarField;
    location    "3076";
    object      k;
}
// * * * * * * * * * * * * * * * * * * * * * * * * * * * * * * * * * * * * * //

dimensions      [0 2 -2 0 0 0 0];

internalField   nonuniform List<scalar> 
400
(
3.992e-08
3.99842e-08
4.00112e-08
4.00038e-08
1.19771e-06
1.19964e-06
1.20045e-06
1.20023e-06
8.48095e-06
8.49462e-06
8.50034e-06
8.49877e-06
3.08097e-05
3.08595e-05
3.08802e-05
3.08745e-05
7.95333e-05
7.96629e-05
7.97159e-05
7.97009e-05
0.000167518
0.000167794
0.000167904
0.000167872
0.000308005
0.000308517
0.000308712
0.000308653
0.000512737
0.000513594
0.000513904
0.000513805
0.000789406
0.00079072
0.000791161
0.00079101
0.00113914
0.001141
0.00114157
0.00114135
0.0015553
0.0015577
0.00155837
0.00155809
0.00202433
0.0020272
0.00202792
0.00202758
0.00252853
0.00253171
0.00253239
0.002532
0.00304925
0.00305252
0.0030531
0.00305266
0.00356948
0.00357264
0.00357306
0.00357256
0.00407534
0.00407825
0.00407845
0.00407789
0.00455656
0.00455914
0.00455911
0.00455844
0.00500645
0.0050087
0.00500841
0.00500761
0.0054221
0.00542411
0.00542353
0.00542261
0.00580327
0.00580509
0.00580422
0.00580321
0.00614947
0.00615113
0.00614999
0.00614895
0.00646091
0.00646245
0.00646109
0.00646004
0.0067385
0.00673991
0.00673838
0.00673738
0.00698359
0.00698488
0.00698326
0.00698234
0.00719794
0.00719912
0.00719745
0.00719664
0.0073835
0.00738456
0.0073829
0.00738223
0.00754236
0.00754331
0.00754166
0.00754116
0.00767664
0.00767746
0.00767585
0.00767552
0.00778843
0.0077891
0.00778753
0.00778737
0.00787973
0.00788023
0.00787871
0.00787873
0.00795242
0.00795274
0.00795128
0.00795146
0.00800825
0.00800838
0.00800697
0.00800733
0.00804881
0.00804878
0.0080474
0.00804796
0.00807557
0.00807541
0.00807404
0.00807482
0.00808989
0.00808963
0.00808823
0.00808927
0.00809299
0.00809264
0.00809118
0.0080925
0.00808595
0.00808551
0.00808397
0.0080856
0.00806976
0.00806921
0.00806758
0.00806954
0.00804528
0.00804461
0.00804289
0.0080452
0.00801329
0.0080125
0.00801069
0.00801336
0.00797451
0.00797356
0.0079717
0.00797471
0.00792958
0.00792848
0.00792659
0.00792991
0.00787911
0.00787786
0.00787598
0.00787955
0.00782365
0.00782227
0.0078204
0.00782415
0.00776361
0.00776208
0.00776026
0.00776421
0.00769932
0.00769763
0.00769586
0.00770006
0.0076311
0.00762921
0.0076275
0.00763199
0.00755921
0.00755712
0.00755545
0.00756024
0.0074837
0.0074814
0.00747977
0.00748485
0.00740454
0.00740202
0.00740042
0.00740578
0.00732184
0.00731911
0.00731753
0.00732315
0.00723571
0.00723279
0.00723122
0.00723707
0.00714628
0.00714319
0.00714162
0.00714767
0.00705364
0.00705041
0.00704882
0.00705505
0.00695789
0.00695455
0.00695294
0.0069593
0.00685912
0.00685569
0.00685406
0.00686052
0.00675739
0.00675391
0.00675225
0.00675879
0.00665279
0.00664928
0.0066476
0.00665418
0.00654537
0.00654185
0.00654016
0.00654675
0.0064352
0.00643168
0.00642999
0.00643657
0.00632232
0.00631882
0.00631712
0.00632368
0.00620678
0.0062033
0.0062016
0.00620813
0.0060886
0.00608519
0.00608347
0.00608997
0.00596783
0.00596449
0.00596276
0.00596922
0.00584453
0.00584125
0.00583952
0.00584593
0.00571871
0.00571549
0.00571375
0.00572012
0.00559041
0.00558725
0.00558548
0.00559181
0.00545966
0.00545655
0.00545473
0.00546101
0.00532646
0.00532346
0.00532152
0.00532775
0.00519086
0.00518793
0.00518589
0.00519206
0.00505288
0.00504998
0.0050479
0.00505398
0.00491253
0.00490966
0.00490761
0.00491356
0.00476987
0.00476701
0.00476507
0.00477082
0.00462491
0.00462207
0.00462029
0.0046258
0.00447769
0.00447489
0.00447329
0.00447852
0.00432825
0.00432552
0.00432406
0.00432903
0.00417664
0.00417402
0.00417267
0.00417738
0.00402293
0.00402046
0.00401916
0.00402361
0.00386718
0.00386495
0.00386362
0.0038678
0.00370953
0.00370758
0.00370615
0.00370998
0.00355004
0.00354847
0.00354674
0.00355029
0.00338874
0.00338758
0.00338545
0.00338891
0.00322583
0.00322492
0.00322253
0.00322604
0.00306161
0.00306077
0.0030583
0.00306188
0.00289635
0.00289552
0.00289315
0.00289665
0.00273045
0.00272957
0.00272737
0.00273064
0.00256417
0.00256328
0.00256125
0.00256427
0.00239791
0.00239704
0.00239512
0.00239797
0.00223213
0.0022315
0.0022295
0.0022323
0.00206782
0.00206742
0.00206538
0.00206805
0.00190613
0.00190589
0.00190394
0.00190644
0.0017487
0.00174822
0.00174649
0.00174894
0.00159696
0.00159624
0.00159491
0.00159713
0.00145281
0.00145223
0.00145137
0.00145302
0.00131876
0.00131839
0.00131796
0.0013191
0.00119781
0.0011976
0.00119742
0.00119831
0.00109352
0.00109348
0.00109325
0.00109417
0.00100971
0.00100997
0.00100937
0.00101072
0.000950838
0.000951117
0.000950407
0.000952054
0.000920689
0.000920515
0.000919926
0.00092163
)
;

boundaryField
{
    inlet
    {
        type            cyclic;
    }
    outlet
    {
        type            cyclic;
    }
    fixedWalls-bottom
    {
        type            kqRWallFunction;
        value           nonuniform List<scalar> 4(3.992e-08 3.99842e-08 4.00112e-08 4.00038e-08);
    }
    fixedWalls-top
    {
        type            symmetry;
    }
    frontAndBack
    {
        type            empty;
    }
}


// ************************************************************************* //
