/*--------------------------------*- C++ -*----------------------------------*\
  =========                 |
  \\      /  F ield         | OpenFOAM: The Open Source CFD Toolbox
   \\    /   O peration     | Website:  https://openfoam.org
    \\  /    A nd           | Version:  10
     \\/     M anipulation  |
\*---------------------------------------------------------------------------*/
FoamFile
{
    format      ascii;
    class       volScalarField;
    location    "143";
    object      k;
}
// * * * * * * * * * * * * * * * * * * * * * * * * * * * * * * * * * * * * * //

dimensions      [0 2 -2 0 0 0 0];

internalField   nonuniform List<scalar> 
200
(
5.16867e-09
5.16702e-09
5.16034e-09
5.16117e-09
1.56148e-07
1.56098e-07
1.55896e-07
1.55921e-07
1.12997e-06
1.1296e-06
1.12814e-06
1.12833e-06
4.21063e-06
4.20925e-06
4.20381e-06
4.20451e-06
1.11659e-05
1.11621e-05
1.11477e-05
1.11496e-05
2.42065e-05
2.41979e-05
2.41666e-05
2.41711e-05
4.59512e-05
4.59337e-05
4.58742e-05
4.58839e-05
7.93334e-05
7.93005e-05
7.91977e-05
7.92169e-05
0.000127398
0.000127339
0.000127174
0.000127211
0.000192951
0.000192852
0.000192603
0.000192671
0.000278063
0.000277905
0.000277551
0.000277667
0.000383499
0.000383266
0.000382787
0.000382974
0.000508224
0.000507903
0.000507291
0.000507575
0.000649166
0.000648762
0.000648022
0.000648427
0.000801373
0.000800917
0.000800076
0.000800617
0.000958584
0.000958128
0.000957238
0.000957904
0.00111408
0.0011137
0.00111283
0.00111358
0.00126382
0.00126346
0.00126267
0.00126357
0.00140441
0.00140403
0.00140336
0.00140448
0.00153309
0.00153262
0.00153207
0.0015335
0.00164778
0.00164713
0.00164669
0.00164855
0.00174705
0.00174612
0.00174583
0.00174826
0.00183009
0.00182876
0.00182866
0.00183187
0.00189622
0.00189447
0.00189452
0.00189882
0.00194421
0.00194208
0.00194241
0.00194829
0.00197316
0.00197104
0.00197111
0.00197824
0.0019849
0.00198245
0.00198248
0.00199083
0.00198056
0.00197835
0.00197846
0.00198731
0.00196134
0.00196
0.00195924
0.00196899
0.00192923
0.00192738
0.00192684
0.00193667
0.0018847
0.00188161
0.00188195
0.00189122
0.00182709
0.00182367
0.00182492
0.00183337
0.00175728
0.00175546
0.00175615
0.00176368
0.00167674
0.00167596
0.00167648
0.00168326
0.00158659
0.00158637
0.00158666
0.00159308
0.00148785
0.00148781
0.00148784
0.00149412
0.00138145
0.00138152
0.00138171
0.00138702
0.00126842
0.00126829
0.0012687
0.0012731
0.00115004
0.00114897
0.00114992
0.00115344
0.00102661
0.00102545
0.00102648
0.0010292
0.000899555
0.000898803
0.00089971
0.000901804
0.000771903
0.000771684
0.000771838
0.000773472
0.00064579
0.000645982
0.000645967
0.000647332
0.000526207
0.000526072
0.000526007
0.000527502
0.000417272
0.000416901
0.000416818
0.000418682
0.000323687
0.000323652
0.000323408
0.000324909
0.000248373
0.000248418
0.000248247
0.000249074
0.000191998
0.000192056
0.000192006
0.000192492
0.000154702
0.000154764
0.000154757
0.000155122
0.000136106
0.000136181
0.000136172
0.000136536
)
;

boundaryField
{
    inlet
    {
        type            cyclic;
    }
    outlet
    {
        type            cyclic;
    }
    fixedWalls-bottom
    {
        type            kqRWallFunction;
        value           nonuniform List<scalar> 4(5.16867e-09 5.16702e-09 5.16034e-09 5.16117e-09);
    }
    fixedWalls-top
    {
        type            symmetry;
    }
    frontAndBack
    {
        type            empty;
    }
}


// ************************************************************************* //
