/*--------------------------------*- C++ -*----------------------------------*\
  =========                 |
  \\      /  F ield         | OpenFOAM: The Open Source CFD Toolbox
   \\    /   O peration     | Website:  https://openfoam.org
    \\  /    A nd           | Version:  10
     \\/     M anipulation  |
\*---------------------------------------------------------------------------*/
FoamFile
{
    format      ascii;
    class       volScalarField;
    location    "143";
    object      nut;
}
// * * * * * * * * * * * * * * * * * * * * * * * * * * * * * * * * * * * * * //

dimensions      [0 2 -1 0 0 0 0];

internalField   nonuniform List<scalar> 
200
(
7.84721e-13
7.8447e-13
7.83455e-13
7.83582e-13
1.3978e-10
1.39736e-10
1.39555e-10
1.39577e-10
3.04729e-09
3.04632e-09
3.04238e-09
3.04286e-09
2.45083e-08
2.45003e-08
2.44686e-08
2.44726e-08
1.16321e-07
1.16281e-07
1.16131e-07
1.16151e-07
4.01151e-07
4.01004e-07
4.00484e-07
4.00556e-07
1.11641e-06
1.11595e-06
1.1145e-06
1.11471e-06
2.65784e-06
2.65652e-06
2.65308e-06
2.65363e-06
5.60403e-06
5.60044e-06
5.59322e-06
5.59476e-06
1.06961e-05
1.06864e-05
1.06729e-05
1.06777e-05
1.87475e-05
1.87254e-05
1.87023e-05
1.87144e-05
3.04886e-05
3.04437e-05
3.04073e-05
3.04346e-05
4.63738e-05
4.62929e-05
4.62392e-05
4.62945e-05
6.64146e-05
6.62854e-05
6.62114e-05
6.63111e-05
9.00992e-05
8.99181e-05
8.98216e-05
8.99832e-05
0.000116442
0.000116223
0.000116109
0.000116339
0.000140378
0.000140331
0.000140224
0.000140315
0.000164363
0.000164323
0.000164225
0.000164334
0.000188671
0.000188629
0.000188548
0.000188687
0.000212923
0.00021287
0.000212806
0.000212985
0.000236812
0.000236735
0.000236685
0.000236916
0.000260261
0.000260132
0.000260098
0.000260387
0.000283647
0.000283406
0.000283377
0.000283723
0.000307757
0.000307345
0.00030731
0.000307758
0.000329664
0.000329694
0.000330743
0.000333168
0.000344063
0.000345034
0.000345213
0.000348559
0.000356687
0.000357467
0.000357289
0.000362276
0.000367249
0.000367901
0.000369399
0.000373754
0.000375067
0.000379077
0.000377242
0.00038413
0.000382856
0.000386282
0.000384899
0.000392187
0.000390134
0.000390304
0.000391575
0.000397841
0.000393189
0.000392215
0.000396804
0.00040099
0.000393459
0.000396054
0.000397399
0.000401884
0.000391548
0.000394771
0.000396397
0.00040038
0.000387021
0.000390972
0.000392541
0.000396616
0.000380569
0.000384715
0.000386254
0.000390488
0.000372057
0.000376148
0.000377732
0.000381855
0.000361274
0.000365068
0.000366612
0.000370572
0.000347853
0.000350948
0.000352373
0.000356144
0.000330594
0.000333105
0.000334108
0.000337834
0.000308421
0.000310668
0.000311252
0.000314838
0.00028057
0.000283296
0.000283172
0.00028646
0.000245468
0.000250552
0.000249973
0.000253015
0.000209305
0.000212442
0.000213265
0.000215925
0.000172143
0.000171387
0.000176221
0.000178061
0.000136925
0.000139506
0.000140918
0.000142952
0.000109603
0.000110949
0.000111419
0.000113197
8.68716e-05
8.79165e-05
8.89098e-05
9.00003e-05
7.1699e-05
7.28487e-05
7.36283e-05
7.49377e-05
6.45479e-05
6.62652e-05
6.72083e-05
6.86248e-05
)
;

boundaryField
{
    inlet
    {
        type            cyclic;
    }
    outlet
    {
        type            cyclic;
    }
    fixedWalls-bottom
    {
        type            nutkWallFunction;
        Cmu             0.09;
        kappa           0.41;
        E               9.8;
        value           uniform 0;
    }
    fixedWalls-top
    {
        type            symmetry;
    }
    frontAndBack
    {
        type            empty;
    }
}


// ************************************************************************* //
