/*--------------------------------*- C++ -*----------------------------------*\
  =========                 |
  \\      /  F ield         | OpenFOAM: The Open Source CFD Toolbox
   \\    /   O peration     | Website:  https://openfoam.org
    \\  /    A nd           | Version:  10
     \\/     M anipulation  |
\*---------------------------------------------------------------------------*/
FoamFile
{
    format      ascii;
    class       volScalarField;
    location    "143";
    object      omega;
}
// * * * * * * * * * * * * * * * * * * * * * * * * * * * * * * * * * * * * * //

dimensions      [0 0 -1 0 0 0 0];

internalField   nonuniform List<scalar> 
200
(
6586.64
6586.64
6586.64
6586.64
1117.1
1117.09
1117.09
1117.1
370.81
370.81
370.81
370.811
171.804
171.804
171.804
171.805
95.992
95.9923
95.9924
95.9929
60.3424
60.3432
60.3434
60.3439
41.1598
41.1612
41.1612
41.1621
29.8489
29.8513
29.8512
29.8523
22.7333
22.7374
22.7373
22.7376
18.0394
18.0464
18.046
18.0443
14.832
14.8411
14.8405
14.8371
12.5784
12.5893
12.5887
12.5835
10.9593
10.9715
10.971
10.9641
9.77444
9.7874
9.78718
9.77856
8.89434
8.90718
8.90738
8.89741
8.23231
8.24385
8.24428
8.23371
7.72789
7.73668
7.73704
7.7265
7.33811
7.34241
7.34197
7.33207
7.03072
7.03086
7.02712
7.01866
6.78104
6.77547
6.77164
6.76267
6.56856
6.55878
6.55847
6.54651
6.38624
6.3715
6.37052
6.35641
6.21916
6.20139
6.1984
6.1815
6.05823
6.04184
6.03454
6.0128
5.89754
5.89056
5.87286
5.84378
5.73488
5.7126
5.70982
5.67547
5.56481
5.54583
5.54868
5.49535
5.39296
5.37739
5.35589
5.31718
5.2293
5.17047
5.1936
5.12585
5.03905
4.98958
5.00609
4.93814
4.83092
4.82089
4.8061
4.7537
4.64685
4.64966
4.59905
4.57211
4.46624
4.43238
4.41912
4.38853
4.28233
4.2454
4.2293
4.20416
4.09949
4.05749
4.04202
4.0167
3.90954
3.86731
3.85196
3.82628
3.71302
3.67281
3.65791
3.63231
3.51095
3.47412
3.46059
3.4355
3.30611
3.27389
3.26336
3.23871
3.10534
3.07844
3.07231
3.04646
2.91664
2.89313
2.89061
2.86435
2.7512
2.72395
2.72568
2.70011
2.63085
2.57823
2.58414
2.55848
2.51407
2.4763
2.46644
2.44299
2.42399
2.43252
2.36531
2.35134
2.36397
2.31999
2.295
2.27286
2.2661
2.23901
2.22805
2.20035
2.21013
2.18452
2.15956
2.1388
2.15766
2.12446
2.10187
2.07002
2.10861
2.05508
2.02612
1.98961
)
;

boundaryField
{
    inlet
    {
        type            cyclic;
    }
    outlet
    {
        type            cyclic;
    }
    fixedWalls-bottom
    {
        beta1           0.075;
        blended         0;
        type            omegaWallFunction;
        value           nonuniform List<scalar> 4(6586.64 6586.64 6586.64 6586.64);
    }
    fixedWalls-top
    {
        type            symmetry;
    }
    frontAndBack
    {
        type            empty;
    }
}


// ************************************************************************* //
