/*--------------------------------*- C++ -*----------------------------------*\
  =========                 |
  \\      /  F ield         | OpenFOAM: The Open Source CFD Toolbox
   \\    /   O peration     | Website:  https://openfoam.org
    \\  /    A nd           | Version:  10
     \\/     M anipulation  |
\*---------------------------------------------------------------------------*/
FoamFile
{
    format      ascii;
    class       volScalarField;
    location    "143";
    object      p;
}
// * * * * * * * * * * * * * * * * * * * * * * * * * * * * * * * * * * * * * //

dimensions      [0 2 -2 0 0 0 0];

internalField   nonuniform List<scalar> 
200
(
1.96816e-11
-3.32593e-07
-3.37973e-06
-3.04606e-06
-2.91462e-09
-3.35128e-07
-3.37659e-06
-3.04352e-06
-6.09903e-09
-3.37691e-07
-3.37345e-06
-3.04097e-06
-8.49839e-09
-3.39853e-07
-3.37117e-06
-3.03881e-06
-9.91861e-09
-3.41703e-07
-3.3698e-06
-3.03698e-06
-1.02451e-08
-3.43437e-07
-3.36951e-06
-3.03524e-06
-9.26756e-09
-3.45261e-07
-3.37049e-06
-3.03343e-06
-6.71757e-09
-3.47454e-07
-3.37309e-06
-3.03124e-06
-2.18151e-09
-3.50449e-07
-3.37765e-06
-3.02826e-06
4.66309e-09
-3.54893e-07
-3.38455e-06
-3.02382e-06
1.42376e-08
-3.61757e-07
-3.39417e-06
-3.01697e-06
2.66862e-08
-3.72355e-07
-3.40669e-06
-3.00638e-06
4.20091e-08
-3.88436e-07
-3.42206e-06
-2.99033e-06
5.9542e-08
-4.12041e-07
-3.43968e-06
-2.96673e-06
7.83816e-08
-4.45058e-07
-3.45857e-06
-2.93374e-06
9.89193e-08
-4.86491e-07
-3.47918e-06
-2.89233e-06
1.27429e-07
-5.28109e-07
-3.50775e-06
-2.85074e-06
1.65512e-07
-5.67757e-07
-3.5459e-06
-2.81112e-06
2.08292e-07
-6.11961e-07
-3.58874e-06
-2.76696e-06
2.54325e-07
-6.62837e-07
-3.63484e-06
-2.71612e-06
3.03715e-07
-7.22049e-07
-3.68428e-06
-2.65696e-06
3.59202e-07
-7.93157e-07
-3.73982e-06
-2.58591e-06
4.26829e-07
-8.82213e-07
-3.80748e-06
-2.49692e-06
4.90731e-07
-9.84706e-07
-3.87142e-06
-2.39453e-06
4.485e-07
-1.05435e-06
-3.82926e-06
-2.32502e-06
3.01614e-07
-1.0859e-06
-3.6824e-06
-2.29359e-06
1.15507e-07
-1.13367e-06
-3.4963e-06
-2.24589e-06
-1.3118e-07
-1.16246e-06
-3.24963e-06
-2.21716e-06
-3.82139e-07
-1.14674e-06
-2.99869e-06
-2.233e-06
-6.27974e-07
-1.14075e-06
-2.7529e-06
-2.23907e-06
-9.49613e-07
-1.17278e-06
-2.43128e-06
-2.20702e-06
-1.3603e-06
-1.1747e-06
-2.02055e-06
-2.20502e-06
-1.7176e-06
-1.09743e-06
-1.66317e-06
-2.28238e-06
-1.96364e-06
-9.71694e-07
-1.41715e-06
-2.40825e-06
-2.18901e-06
-8.09615e-07
-1.19178e-06
-2.57051e-06
-2.41698e-06
-6.31372e-07
-9.63804e-07
-2.74891e-06
-2.64128e-06
-4.60819e-07
-7.39498e-07
-2.91965e-06
-2.84971e-06
-3.14756e-07
-5.31151e-07
-3.06585e-06
-3.02978e-06
-2.09557e-07
-3.51198e-07
-3.17125e-06
-3.1728e-06
-1.61218e-07
-2.08384e-07
-3.21973e-06
-3.27444e-06
-1.68036e-07
-1.06928e-07
-3.21308e-06
-3.33043e-06
-1.94334e-07
-5.11447e-08
-3.1869e-06
-3.35698e-06
-1.74983e-07
-2.474e-08
-3.20639e-06
-3.39752e-06
-1.23658e-07
1.56658e-08
-3.25779e-06
-3.50356e-06
-9.94329e-08
1.21653e-07
-3.28207e-06
-3.60444e-06
-8.05617e-08
2.22432e-07
-3.30098e-06
-3.62396e-06
-7.49509e-08
2.41819e-07
-3.30665e-06
-3.6166e-06
-9.28068e-08
2.34346e-07
-3.28886e-06
-3.61859e-06
-1.06135e-07
2.36291e-07
-3.27561e-06
-3.62721e-06
-1.11422e-07
2.44917e-07
-3.27039e-06
)
;

boundaryField
{
    inlet
    {
        type            cyclic;
    }
    outlet
    {
        type            cyclic;
    }
    fixedWalls-bottom
    {
        type            zeroGradient;
    }
    fixedWalls-top
    {
        type            symmetry;
    }
    frontAndBack
    {
        type            empty;
    }
}


// ************************************************************************* //
