/*--------------------------------*- C++ -*----------------------------------*\
  =========                 |
  \\      /  F ield         | OpenFOAM: The Open Source CFD Toolbox
   \\    /   O peration     | Website:  https://openfoam.org
    \\  /    A nd           | Version:  10
     \\/     M anipulation  |
\*---------------------------------------------------------------------------*/
FoamFile
{
    format      ascii;
    class       surfaceScalarField;
    location    "143";
    object      phi;
}
// * * * * * * * * * * * * * * * * * * * * * * * * * * * * * * * * * * * * * //

dimensions      [0 3 -1 0 0 0 0];

internalField   nonuniform List<scalar> 
346
(
0.0002805
-1.21253e-08
0.000280509
-8.61566e-09
0.000280498
1.18331e-08
8.58732e-09
0.000868539
-4.28947e-08
0.000868563
-3.20005e-08
0.000868531
4.36528e-08
3.22005e-08
0.00150132
-9.2935e-08
0.00150136
-6.91721e-08
0.00150131
9.36505e-08
6.92577e-08
0.00218119
-1.58433e-07
0.00218124
-1.17676e-07
0.00218117
1.59818e-07
1.18014e-07
0.00291056
-2.39547e-07
0.00291062
-1.75938e-07
0.00291053
2.40865e-07
1.76126e-07
0.00369188
-3.33196e-07
0.00369194
-2.40316e-07
0.00369185
3.34918e-07
2.40769e-07
0.0045276
-4.39241e-07
0.00452767
-3.08426e-07
0.00452756
4.40874e-07
3.08713e-07
0.0054201
-5.55224e-07
0.00542016
-3.75603e-07
0.00542005
5.5709e-07
3.76159e-07
0.00637154
-6.80514e-07
0.0063716
-4.39064e-07
0.00637148
6.82294e-07
4.3945e-07
0.00738379
-8.12614e-07
0.00738384
-4.94073e-07
0.00738371
8.14519e-07
4.94732e-07
0.00845825
-9.49819e-07
0.0084583
-5.39598e-07
0.00845816
9.51638e-07
5.40087e-07
0.00959584
-1.08909e-06
0.00959588
-5.74328e-07
0.00959574
1.09097e-06
5.75096e-07
0.010797
-1.22866e-06
0.010797
-6.03664e-07
0.0107969
1.23046e-06
6.04253e-07
0.0120618
-1.36796e-06
0.0120618
-6.3431e-07
0.0120617
1.36976e-06
6.35183e-07
0.0133904
-1.51069e-06
0.0133904
-6.80181e-07
0.0133903
1.51242e-06
6.80872e-07
0.0147829
-1.66591e-06
0.014783
-7.50629e-07
0.0147829
1.66761e-06
7.51613e-07
0.0162414
-1.82462e-06
0.0162414
-8.24918e-07
0.0162413
1.82625e-06
8.25706e-07
0.0177681
-1.97438e-06
0.0177682
-8.65809e-07
0.017768
1.97596e-06
8.66901e-07
0.0193651
-2.11869e-06
0.0193651
-8.62122e-07
0.0193649
2.12021e-06
8.63007e-07
0.0210339
-2.25454e-06
0.0210339
-7.96116e-07
0.0210337
2.256e-06
7.97315e-07
0.0227766
-2.36204e-06
0.0227764
-6.54517e-07
0.0227763
2.36343e-06
6.55486e-07
0.0245949
-2.39624e-06
0.0245947
-4.23014e-07
0.0245947
2.39756e-06
4.24301e-07
0.0264907
-2.26711e-06
0.0264904
-1.19225e-07
0.0264905
2.26836e-06
1.20259e-07
0.0284652
-1.83081e-06
0.0284649
1.77702e-07
0.0284653
1.83199e-06
-1.76352e-07
0.0305199
-1.33314e-06
0.0305196
4.99342e-07
0.0305201
1.33425e-06
-4.98259e-07
0.0326588
-9.90199e-07
0.0326584
8.97901e-07
0.0326588
9.91259e-07
-8.96508e-07
0.0348859
-7.06137e-07
0.0348856
1.16961e-06
0.0348859
7.0712e-07
-1.1685e-06
0.0372035
-5.95259e-07
0.0372034
1.32992e-06
0.0372035
5.96222e-07
-1.32853e-06
0.0396134
-5.2503e-07
0.0396132
1.54981e-06
0.0396133
5.2591e-07
-1.54871e-06
0.0421171
-2.79154e-07
0.0421168
1.77804e-06
0.0421171
2.80051e-07
-1.7767e-06
0.0447157
3.40375e-08
0.0447157
1.74329e-06
0.044716
-3.32177e-08
-1.74225e-06
0.0474105
8.65153e-08
0.0474109
1.41828e-06
0.0474109
-8.56424e-08
-1.41707e-06
0.0502024
3.57151e-09
0.0502027
1.03839e-06
0.0502027
-2.77973e-09
-1.03747e-06
0.0530912
7.22208e-08
0.0530915
7.25482e-07
0.0530916
-7.13485e-08
-7.24448e-07
0.0560771
1.53542e-07
0.0560773
5.43615e-07
0.0560774
-1.52761e-07
-5.4288e-07
0.0591588
1.43124e-07
0.0591589
4.57728e-07
0.0591589
-1.42236e-07
-4.56961e-07
0.0623342
1.85959e-08
0.0623343
4.01583e-07
0.0623342
-1.77952e-08
-4.01092e-07
0.0656001
-1.82021e-07
0.0656002
3.47982e-07
0.0656
1.82937e-07
-3.47523e-07
0.0689524
-4.11197e-07
0.0689525
3.05862e-07
0.0689522
4.12005e-07
-3.05644e-07
0.0723858
-5.99507e-07
0.0723859
2.60497e-07
0.0723857
6.00408e-07
-2.60335e-07
0.0758939
-6.85083e-07
0.075894
1.57144e-07
0.0758939
6.85852e-07
-1.57137e-07
0.0794686
-6.30886e-07
0.0794688
-1.9734e-08
0.0794688
6.31703e-07
1.9697e-08
0.0830998
-4.76793e-07
0.0830998
-5.75728e-08
0.0831
4.77455e-07
5.74586e-08
0.0867732
-2.65094e-07
0.086773
7.21962e-08
0.0867733
2.6576e-07
-7.23474e-08
0.0904691
-2.29128e-07
0.0904691
7.33284e-08
0.0904692
2.29659e-07
-7.35055e-08
0.0941616
-3.43455e-07
0.0941617
7.6968e-09
0.0941616
3.43908e-07
-7.86771e-09
0.0978178
-3.2306e-07
0.0978178
-1.64675e-08
0.0978178
3.2334e-07
1.63586e-08
0.1014
-2.00294e-07
0.1014
-2.13014e-08
0.1014
2.00374e-07
2.12842e-08
0.104865
-7.26279e-08
0.104865
-7.9996e-09
0.104865
7.25712e-08
8.05637e-09
0.108165
0.108165
0.108165
)
;

boundaryField
{
    inlet
    {
        type            cyclic;
        value           nonuniform List<scalar> 
50
(
-0.108165
-0.104865
-0.1014
-0.0978178
-0.0941615
-0.0904692
-0.0867734
-0.0831
-0.0794687
-0.0758938
-0.0723856
-0.0689522
-0.0655999
-0.0623341
-0.0591588
-0.0560772
-0.0530913
-0.0502023
-0.0474106
-0.044716
-0.0421173
-0.0396135
-0.0372036
-0.0348862
-0.0326592
-0.0305204
-0.0284656
-0.0264908
-0.0245949
-0.0227765
-0.0210338
-0.0193649
-0.017768
-0.0162412
-0.0147828
-0.0133902
-0.0120617
-0.0107969
-0.0095957
-0.00845812
-0.00738365
-0.00637141
-0.00541998
-0.0045275
-0.00369178
-0.00291048
-0.00218112
-0.00150127
-0.000868507
-0.000280489
)
;
    }
    outlet
    {
        type            cyclic;
        value           nonuniform List<scalar> 
50
(
0.108165
0.104865
0.1014
0.0978178
0.0941615
0.0904692
0.0867734
0.0831
0.0794687
0.0758938
0.0723856
0.0689522
0.0655999
0.0623341
0.0591588
0.0560772
0.0530913
0.0502023
0.0474106
0.044716
0.0421173
0.0396135
0.0372036
0.0348862
0.0326592
0.0305204
0.0284656
0.0264908
0.0245949
0.0227765
0.0210338
0.0193649
0.017768
0.0162412
0.0147828
0.0133902
0.0120617
0.0107969
0.0095957
0.00845812
0.00738365
0.00637141
0.00541998
0.0045275
0.00369178
0.00291048
0.00218112
0.00150127
0.000868507
0.000280489
)
;
    }
    fixedWalls-bottom
    {
        type            calculated;
        value           uniform 0;
    }
    fixedWalls-top
    {
        type            symmetry;
        value           uniform 0;
    }
    frontAndBack
    {
        type            empty;
        value           nonuniform List<scalar> 0();
    }
}


// ************************************************************************* //
