/*--------------------------------*- C++ -*----------------------------------*\
  =========                 |
  \\      /  F ield         | OpenFOAM: The Open Source CFD Toolbox
   \\    /   O peration     | Website:  https://openfoam.org
    \\  /    A nd           | Version:  10
     \\/     M anipulation  |
\*---------------------------------------------------------------------------*/
FoamFile
{
    format      ascii;
    class       volSymmTensorField;
    location    "143";
    object      R;
}
// * * * * * * * * * * * * * * * * * * * * * * * * * * * * * * * * * * * * * //

dimensions      [0 2 -2 0 0 0 0];

internalField   nonuniform List<symmTensor> 
200
(
(3.44578e-09 -2.58138e-12 -0 3.44578e-09 -0 3.44578e-09)
(3.44468e-09 -2.58071e-12 -0 3.44468e-09 -0 3.44468e-09)
(3.44022e-09 -2.57736e-12 -0 3.44022e-09 -0 3.44022e-09)
(3.44078e-09 -2.5776e-12 -0 3.44078e-09 -0 3.44078e-09)
(1.04099e-07 -4.55493e-10 -0 1.04099e-07 -0 1.04099e-07)
(1.04065e-07 -4.5537e-10 -0 1.04065e-07 -0 1.04065e-07)
(1.03931e-07 -4.54779e-10 -0 1.03931e-07 -0 1.03931e-07)
(1.03948e-07 -4.54826e-10 -0 1.03948e-07 -0 1.03948e-07)
(7.53311e-07 -9.83254e-09 -0 7.53311e-07 -0 7.53311e-07)
(7.53069e-07 -9.82978e-09 -0 7.53069e-07 -0 7.53069e-07)
(7.52095e-07 -9.81704e-09 -0 7.52095e-07 -0 7.52095e-07)
(7.52218e-07 -9.81814e-09 -0 7.52218e-07 -0 7.52218e-07)
(2.80708e-06 -7.82677e-08 -0 2.80709e-06 -0 2.80709e-06)
(2.80617e-06 -7.82446e-08 -0 2.80617e-06 -0 2.80617e-06)
(2.80254e-06 -7.81431e-08 -0 2.80254e-06 -0 2.80254e-06)
(2.80301e-06 -7.81529e-08 -0 2.80301e-06 -0 2.80301e-06)
(7.44392e-06 -3.67472e-07 -0 7.44392e-06 -0 7.44392e-06)
(7.44141e-06 -3.67355e-07 -0 7.44141e-06 -0 7.44141e-06)
(7.43178e-06 -3.66878e-07 -0 7.43178e-06 -0 7.43178e-06)
(7.43309e-06 -3.66929e-07 -0 7.43309e-06 -0 7.43309e-06)
(1.61376e-05 -1.25288e-06 -0 1.61376e-05 -0 1.61376e-05)
(1.61319e-05 -1.25244e-06 -0 1.61319e-05 -0 1.61319e-05)
(1.6111e-05 -1.25081e-06 -0 1.6111e-05 -0 1.6111e-05)
(1.61141e-05 -1.251e-06 -0 1.61141e-05 -0 1.61141e-05)
(3.06341e-05 -3.44452e-06 -0 3.06341e-05 -0 3.06341e-05)
(3.06225e-05 -3.44312e-06 -0 3.06225e-05 -0 3.06225e-05)
(3.05828e-05 -3.43864e-06 -0 3.05828e-05 -0 3.05828e-05)
(3.05893e-05 -3.43922e-06 -0 3.05892e-05 -0 3.05892e-05)
(5.28889e-05 -8.09278e-06 -0 5.2889e-05 -0 5.28889e-05)
(5.2867e-05 -8.08876e-06 -0 5.2867e-05 -0 5.2867e-05)
(5.27985e-05 -8.07821e-06 -0 5.27984e-05 -0 5.27985e-05)
(5.28113e-05 -8.07982e-06 -0 5.28113e-05 -0 5.28113e-05)
(8.4932e-05 -1.68168e-05 -0 8.49322e-05 -0 8.49321e-05)
(8.48928e-05 -1.6806e-05 -0 8.4893e-05 -0 8.48929e-05)
(8.47831e-05 -1.67841e-05 -0 8.47829e-05 -0 8.4783e-05)
(8.48076e-05 -1.67887e-05 -0 8.48075e-05 -0 8.48075e-05)
(0.000128634 -3.15768e-05 -0 0.000128634 -0 0.000128634)
(0.000128568 -3.15479e-05 -0 0.000128568 -0 0.000128568)
(0.000128402 -3.15075e-05 -0 0.000128402 -0 0.000128402)
(0.000128447 -3.15219e-05 -0 0.000128447 -0 0.000128447)
(0.000185375 -5.43269e-05 -0 0.000185376 -0 0.000185375)
(0.00018527 -5.4262e-05 -0 0.00018527 -0 0.00018527)
(0.000185035 -5.41944e-05 -0 0.000185034 -0 0.000185034)
(0.000185111 -5.423e-05 -0 0.000185111 -0 0.000185111)
(0.000255666 -8.64961e-05 -0 0.000255667 -0 0.000255666)
(0.00025551 -8.63678e-05 -0 0.000255511 -0 0.00025551)
(0.000255192 -8.62636e-05 -0 0.000255191 -0 0.000255191)
(0.000255316 -8.63422e-05 -0 0.000255316 -0 0.000255316)
(0.000338815 -0.000128435 -0 0.000338817 -0 0.000338816)
(0.000338602 -0.00012821 -0 0.000338602 -0 0.000338602)
(0.000338195 -0.000128061 -0 0.000338193 -0 0.000338194)
(0.000338384 -0.000128215 -0 0.000338383 -0 0.000338383)
(0.000432776 -0.00017906 -0 0.000432778 -0 0.000432777)
(0.000432507 -0.000178714 -0 0.000432508 -0 0.000432508)
(0.000432016 -0.000178515 -0 0.000432013 -0 0.000432015)
(0.000432285 -0.000178784 -0 0.000432285 -0 0.000432285)
(0.000534247 -0.000235878 -0 0.00053425 -0 0.000534248)
(0.000533944 -0.000235411 -0 0.000533945 -0 0.000533944)
(0.000533386 -0.000235161 -0 0.000533382 -0 0.000533384)
(0.000533745 -0.00023558 -0 0.000533744 -0 0.000533745)
(0.000639053 -0.000295568 -0 0.000639058 -0 0.000639056)
(0.000638751 -0.000295021 -0 0.000638753 -0 0.000638752)
(0.000638161 -0.000294733 -0 0.000638156 -0 0.000638159)
(0.000638604 -0.000295312 -0 0.000638602 -0 0.000638603)
(0.00074272 -0.000345366 -0 0.000742726 -0 0.000742723)
(0.000742463 -0.000345246 -0 0.000742466 -0 0.000742464)
(0.000741889 -0.000344977 -0 0.000741883 -0 0.000741886)
(0.000742389 -0.00034521 -0 0.000742386 -0 0.000742387)
(0.000842541 -0.000391783 -0 0.000842548 -0 0.000842544)
(0.000842306 -0.000391673 -0 0.000842308 -0 0.000842307)
(0.000841782 -0.000391427 -0 0.000841775 -0 0.000841779)
(0.000842382 -0.000391707 -0 0.00084238 -0 0.000842381)
(0.000936271 -0.00043537 -0 0.000936278 -0 0.000936275)
(0.000936022 -0.000435252 -0 0.000936022 -0 0.000936022)
(0.000935577 -0.000435044 -0 0.00093557 -0 0.000935574)
(0.000936323 -0.000435392 -0 0.000936323 -0 0.000936323)
(0.00102206 -0.000475282 -0 0.00102207 -0 0.00102206)
(0.00102175 -0.000475134 -0 0.00102174 -0 0.00102175)
(0.00102139 -0.000474965 -0 0.00102138 -0 0.00102138)
(0.00102233 -0.000475408 -0 0.00102234 -0 0.00102234)
(0.00109852 -0.000510979 -0 0.00109852 -0 0.00109852)
(0.00109809 -0.000510772 -0 0.00109808 -0 0.00109808)
(0.0010978 -0.000510637 -0 0.00109779 -0 0.00109779)
(0.00109903 -0.000511209 -0 0.00109904 -0 0.00109903)
(0.0011647 -0.000542428 -0 0.0011647 -0 0.0011647)
(0.00116408 -0.00054211 -0 0.00116407 -0 0.00116408)
(0.00116389 -0.000542019 -0 0.00116389 -0 0.00116389)
(0.0011655 -0.000542749 -0 0.00116552 -0 0.00116551)
(0.00122007 -0.000570401 -0 0.00122006 -0 0.00122006)
(0.00121918 -0.000569883 -0 0.00121917 -0 0.00121917)
(0.0012191 -0.000569833 -0 0.00121911 -0 0.0012191)
(0.00122124 -0.000570739 -0 0.00122125 -0 0.00122125)
(0.00126416 -0.000596475 -0 0.00126413 -0 0.00126415)
(0.00126299 -0.000595694 -0 0.00126297 -0 0.00126298)
(0.001263 -0.000595609 -0 0.00126303 -0 0.00126301)
(0.00126587 -0.000596666 -0 0.00126589 -0 0.00126588)
(0.00129616 -0.000615789 -0 0.00129612 -0 0.00129614)
(0.00129474 -0.000615878 -0 0.00129471 -0 0.00129472)
(0.00129492 -0.000617762 -0 0.00129496 -0 0.00129494)
(0.00129885 -0.000622309 -0 0.00129887 -0 0.00129886)
(0.00131546 -0.000619955 -0 0.00131543 -0 0.00131544)
(0.00131404 -0.00062172 -0 0.00131401 -0 0.00131402)
(0.00131406 -0.000622057 -0 0.00131409 -0 0.00131407)
(0.00131881 -0.000627952 -0 0.00131884 -0 0.00131883)
(0.00132327 -0.000620017 -0 0.00132325 -0 0.00132326)
(0.00132165 -0.000621475 -0 0.00132162 -0 0.00132164)
(0.00132164 -0.000621184 -0 0.00132166 -0 0.00132165)
(0.00132721 -0.000629713 -0 0.00132723 -0 0.00132722)
(0.00132038 -0.000615427 -0 0.00132037 -0 0.00132037)
(0.0013189 -0.000616563 -0 0.00131889 -0 0.0013189)
(0.00131897 -0.000619061 -0 0.00131898 -0 0.00131897)
(0.00132487 -0.000626262 -0 0.00132488 -0 0.00132488)
(0.00130756 -0.000605359 -0 0.00130756 -0 0.00130756)
(0.00130668 -0.000611573 -0 0.00130666 -0 0.00130667)
(0.00130616 -0.00060884 -0 0.00130617 -0 0.00130616)
(0.00131265 -0.00061978 -0 0.00131267 -0 0.00131266)
(0.00128616 -0.000594206 -0 0.00128615 -0 0.00128615)
(0.00128493 -0.000599305 -0 0.00128492 -0 0.00128492)
(0.00128455 -0.000597487 -0 0.00128457 -0 0.00128456)
(0.00129111 -0.000608569 -0 0.00129112 -0 0.00129112)
(0.00125648 -0.000581306 -0 0.00125646 -0 0.00125647)
(0.00125441 -0.00058176 -0 0.00125441 -0 0.00125441)
(0.00125462 -0.000583683 -0 0.00125464 -0 0.00125463)
(0.00126081 -0.000592907 -0 0.00126081 -0 0.00126081)
(0.00121806 -0.000561752 -0 0.00121806 -0 0.00121806)
(0.00121577 -0.000560668 -0 0.00121579 -0 0.00121578)
(0.00121661 -0.00056705 -0 0.00121662 -0 0.00121661)
(0.00122226 -0.000573044 -0 0.00122224 -0 0.00122224)
(0.00117152 -0.000538181 -0 0.00117152 -0 0.00117152)
(0.00117029 -0.000541767 -0 0.00117032 -0 0.00117031)
(0.00117077 -0.000543556 -0 0.00117077 -0 0.00117077)
(0.0011758 -0.000549743 -0 0.00117577 -0 0.00117579)
(0.00111783 -0.000511641 -0 0.00111782 -0 0.00111782)
(0.0011173 -0.000515759 -0 0.00111732 -0 0.00111731)
(0.00111765 -0.000517899 -0 0.00111766 -0 0.00111766)
(0.00112219 -0.000523145 -0 0.00112216 -0 0.00112217)
(0.00105773 -0.000481893 -0 0.00105772 -0 0.00105772)
(0.00105757 -0.000486768 -0 0.00105758 -0 0.00105758)
(0.00105777 -0.000488683 -0 0.00105777 -0 0.00105777)
(0.00106206 -0.000493765 -0 0.00106205 -0 0.00106206)
(0.0009919 -0.000450144 -0 0.000991901 -0 0.000991901)
(0.000991872 -0.000455044 -0 0.000991878 -0 0.000991875)
(0.000991891 -0.000456825 -0 0.00099189 -0 0.00099189)
(0.000996081 -0.000461806 -0 0.000996076 -0 0.000996079)
(0.000920966 -0.000416534 -0 0.000920974 -0 0.00092097)
(0.000921012 -0.000421125 -0 0.000921015 -0 0.000921014)
(0.000921141 -0.000422874 -0 0.000921134 -0 0.000921137)
(0.00092468 -0.000427459 -0 0.000924677 -0 0.000924679)
(0.000845606 -0.000381209 -0 0.000845617 -0 0.000845611)
(0.000845526 -0.000385217 -0 0.000845529 -0 0.000845527)
(0.000845803 -0.000386835 -0 0.000845792 -0 0.000845797)
(0.000848735 -0.000390998 -0 0.000848732 -0 0.000848733)
(0.000766686 -0.000344246 -0 0.000766699 -0 0.000766693)
(0.000765976 -0.000347305 -0 0.000765978 -0 0.000765977)
(0.000766621 -0.000348715 -0 0.000766609 -0 0.000766615)
(0.000768964 -0.000352451 -0 0.000768962 -0 0.000768963)
(0.000684399 -0.000305079 -0 0.000684408 -0 0.000684404)
(0.000683629 -0.000307393 -0 0.000683632 -0 0.00068363)
(0.000684326 -0.000308333 -0 0.000684317 -0 0.000684321)
(0.000686133 -0.000311789 -0 0.00068613 -0 0.000686132)
(0.000599701 -0.00026359 -0 0.000599705 -0 0.000599704)
(0.0005992 -0.000265513 -0 0.000599205 -0 0.000599202)
(0.000599809 -0.000266033 -0 0.000599805 -0 0.000599806)
(0.000601205 -0.000269122 -0 0.0006012 -0 0.000601203)
(0.000514603 -0.00022022 -0 0.000514601 -0 0.000514602)
(0.000514454 -0.000222333 -0 0.000514458 -0 0.000514456)
(0.000514558 -0.000222251 -0 0.00051456 -0 0.000514558)
(0.00051565 -0.000224855 -0 0.000515646 -0 0.000515647)
(0.000430529 -0.000174954 -0 0.000430524 -0 0.000430527)
(0.000430655 -0.000178524 -0 0.000430655 -0 0.000430655)
(0.000430642 -0.000178122 -0 0.000430647 -0 0.000430644)
(0.000431555 -0.000180299 -0 0.000431555 -0 0.000431554)
(0.000350807 -0.000133252 -0 0.000350803 -0 0.000350805)
(0.000350716 -0.000135253 -0 0.000350714 -0 0.000350714)
(0.000350669 -0.000135768 -0 0.000350673 -0 0.000350672)
(0.000351667 -0.000137456 -0 0.000351669 -0 0.000351669)
(0.000278182 -9.56015e-05 -0 0.000278181 -0 0.000278182)
(0.000277935 -9.52183e-05 -0 0.000277934 -0 0.000277934)
(0.000277879 -9.78834e-05 -0 0.000277879 -0 0.000277879)
(0.000279121 -9.88969e-05 -0 0.000279122 -0 0.000279121)
(0.000215791 -6.40487e-05 -0 0.000215792 -0 0.000215792)
(0.000215768 -6.52599e-05 -0 0.000215769 -0 0.000215768)
(0.000215606 -6.59182e-05 -0 0.000215605 -0 0.000215605)
(0.000216606 -6.68697e-05 -0 0.000216605 -0 0.000216606)
(0.000165582 -4.0898e-05 -0 0.000165582 -0 0.000165582)
(0.000165612 -4.13918e-05 -0 0.000165612 -0 0.000165612)
(0.000165498 -4.15723e-05 -0 0.000165498 -0 0.000165498)
(0.000166049 -4.22419e-05 -0 0.000166049 -0 0.000166049)
(0.000127999 -2.36052e-05 -0 0.000127998 -0 0.000127998)
(0.000128037 -2.38873e-05 -0 0.000128037 -0 0.000128037)
(0.000128004 -2.41576e-05 -0 0.000128005 -0 0.000128004)
(0.000128328 -2.44572e-05 -0 0.000128328 -0 0.000128328)
(0.000103135 -1.17674e-05 -0 0.000103134 -0 0.000103135)
(0.000103176 -1.1957e-05 -0 0.000103176 -0 0.000103176)
(0.000103171 -1.2084e-05 -0 0.000103172 -0 0.000103171)
(0.000103415 -1.22986e-05 -0 0.000103415 -0 0.000103415)
(9.07378e-05 -3.51338e-06 -0 9.07374e-05 -0 9.07377e-05)
(9.07871e-05 -3.60774e-06 -0 9.0787e-05 -0 9.0787e-05)
(9.0781e-05 -3.65859e-06 -0 9.07814e-05 -0 9.07811e-05)
(9.10241e-05 -3.73502e-06 -0 9.10242e-05 -0 9.10242e-05)
)
;

boundaryField
{
    inlet
    {
        type            cyclic;
    }
    outlet
    {
        type            cyclic;
    }
    fixedWalls-bottom
    {
        type            kqRWallFunction;
        value           nonuniform List<symmTensor> 4((3.44578e-09 -0 -0 3.44578e-09 -0 3.44578e-09) (3.44468e-09 -0 -0 3.44468e-09 -0 3.44468e-09) (3.44022e-09 -0 -0 3.44022e-09 -0 3.44022e-09) (3.44078e-09 -0 -0 3.44078e-09 -0 3.44078e-09));
    }
    fixedWalls-top
    {
        type            symmetry;
    }
    frontAndBack
    {
        type            empty;
    }
}


// ************************************************************************* //
