/*--------------------------------*- C++ -*----------------------------------*\
  =========                 |
  \\      /  F ield         | OpenFOAM: The Open Source CFD Toolbox
   \\    /   O peration     | Website:  https://openfoam.org
    \\  /    A nd           | Version:  10
     \\/     M anipulation  |
\*---------------------------------------------------------------------------*/
FoamFile
{
    format      ascii;
    class       volVectorField;
    location    "143";
    object      U;
}
// * * * * * * * * * * * * * * * * * * * * * * * * * * * * * * * * * * * * * //

dimensions      [0 1 -1 0 0 0 0];

internalField   nonuniform List<vector> 
200
(
(0.015223 -2.4943e-09 0)
(0.015224 -2.05816e-09 0)
(0.0152239 2.3402e-09 0)
(0.0152228 1.89699e-09 0)
(0.0458216 -2.42015e-08 0)
(0.0458242 -1.71522e-08 0)
(0.045824 2.43399e-08 0)
(0.045821 1.73473e-08 0)
(0.0769961 -6.40066e-08 0)
(0.077 -4.77119e-08 0)
(0.0769998 6.47732e-08 0)
(0.0769951 4.78456e-08 0)
(0.108743 -1.22218e-07 0)
(0.108748 -9.10351e-08 0)
(0.108748 1.23327e-07 0)
(0.108742 9.12334e-08 0)
(0.141059 -1.96119e-07 0)
(0.141065 -1.45137e-07 0)
(0.141064 1.97515e-07 0)
(0.141057 1.45392e-07 0)
(0.173934 -2.84066e-07 0)
(0.173941 -2.07242e-07 0)
(0.17394 2.85589e-07 0)
(0.173932 2.07546e-07 0)
(0.207358 -3.84395e-07 0)
(0.207364 -2.74304e-07 0)
(0.207364 3.86065e-07 0)
(0.207355 2.74664e-07 0)
(0.241308 -4.95859e-07 0)
(0.241315 -3.42791e-07 0)
(0.241314 4.97597e-07 0)
(0.241305 3.432e-07 0)
(0.275755 -6.1694e-07 0)
(0.275762 -4.08844e-07 0)
(0.275761 6.18763e-07 0)
(0.275752 4.09309e-07 0)
(0.310651 -7.46134e-07 0)
(0.310657 -4.68592e-07 0)
(0.310655 7.47975e-07 0)
(0.310646 4.69107e-07 0)
(0.34593 -8.81278e-07 0)
(0.345936 -5.18855e-07 0)
(0.345933 8.83147e-07 0)
(0.345925 5.19429e-07 0)
(0.381508 -1.01988e-06 0)
(0.381514 -5.5822e-07 0)
(0.381511 1.02173e-06 0)
(0.381503 5.58847e-07 0)
(0.417289 -1.15927e-06 0)
(0.417294 -5.88498e-07 0)
(0.417291 1.16111e-06 0)
(0.417284 5.8918e-07 0)
(0.453169 -1.29837e-06 0)
(0.453174 -6.16457e-07 0)
(0.453171 1.30017e-06 0)
(0.453164 6.17189e-07 0)
(0.48905 -1.44026e-06 0)
(0.489056 -6.55292e-07 0)
(0.489053 1.44203e-06 0)
(0.489046 6.5608e-07 0)
(0.524849 -1.59263e-06 0)
(0.524856 -7.19042e-07 0)
(0.524854 1.59434e-06 0)
(0.524846 7.1988e-07 0)
(0.560543 -1.74276e-06 0)
(0.56055 -7.87147e-07 0)
(0.560548 1.74443e-06 0)
(0.56054 7.88037e-07 0)
(0.596132 -1.89949e-06 0)
(0.596137 -8.52894e-07 0)
(0.596134 1.90108e-06 0)
(0.596128 8.53836e-07 0)
(0.631587 -2.04801e-06 0)
(0.631591 -8.76668e-07 0)
(0.631587 2.04955e-06 0)
(0.631582 8.77661e-07 0)
(0.666881 -2.19154e-06 0)
(0.666883 -8.44637e-07 0)
(0.666877 2.19301e-06 0)
(0.666875 8.45676e-07 0)
(0.701989 -2.32448e-06 0)
(0.701989 -7.41804e-07 0)
(0.70198 2.32588e-06 0)
(0.701982 7.42888e-07 0)
(0.736888 -2.41262e-06 0)
(0.736884 -5.55157e-07 0)
(0.736874 2.41395e-06 0)
(0.736883 5.56288e-07 0)
(0.771549 -2.3561e-06 0)
(0.771542 -2.96479e-07 0)
(0.771531 2.35741e-06 0)
(0.77155 2.97668e-07 0)
(0.805929 -2.00699e-06 0)
(0.805921 -1.67194e-08 0)
(0.805912 2.00818e-06 0)
(0.805947 1.78285e-08 0)
(0.839999 -1.64928e-06 0)
(0.839994 3.72148e-07 0)
(0.839981 1.65037e-06 0)
(0.840022 -3.70962e-07 0)
(0.873793 -1.11908e-06 0)
(0.873789 7.30954e-07 0)
(0.873772 1.12023e-06 0)
(0.873808 -7.29667e-07 0)
(0.907342 -8.29427e-07 0)
(0.907339 1.00607e-06 0)
(0.907327 8.30443e-07 0)
(0.907354 -1.00489e-06 0)
(0.940623 -6.8638e-07 0)
(0.94063 1.29498e-06 0)
(0.940615 6.87329e-07 0)
(0.940636 -1.29365e-06 0)
(0.973618 -5.19051e-07 0)
(0.973619 1.46585e-06 0)
(0.973607 5.20007e-07 0)
(0.973623 -1.46461e-06 0)
(1.00629 -3.87217e-07 0)
(1.00627 1.68634e-06 0)
(1.00628 3.88106e-07 0)
(1.00628 -1.68516e-06 0)
(1.03857 -1.52286e-07 0)
(1.03855 1.74268e-06 0)
(1.03857 1.53095e-07 0)
(1.03856 -1.74154e-06 0)
(1.07043 -4.5838e-08 0)
(1.07044 1.65559e-06 0)
(1.07045 4.65984e-08 0)
(1.07044 -1.6543e-06 0)
(1.10184 1.20643e-07 0)
(1.10186 1.24055e-06 0)
(1.10186 -1.1965e-07 0)
(1.10185 -1.23949e-06 0)
(1.13275 6.74332e-08 0)
(1.13275 8.62456e-07 0)
(1.13276 -6.65797e-08 0)
(1.13276 -8.6143e-07 0)
(1.16308 1.28393e-07 0)
(1.16308 6.22215e-07 0)
(1.16309 -1.27547e-07 0)
(1.16309 -6.21324e-07 0)
(1.19277 1.60088e-07 0)
(1.19277 5.01439e-07 0)
(1.19277 -1.59307e-07 0)
(1.19277 -5.0071e-07 0)
(1.22174 9.7104e-08 0)
(1.22174 4.39667e-07 0)
(1.22174 -9.63248e-08 0)
(1.22173 -4.38996e-07 0)
(1.24988 -7.63601e-08 0)
(1.24988 3.90627e-07 0)
(1.24988 7.72945e-08 0)
(1.24987 -3.90101e-07 0)
(1.2771 -3.05088e-07 0)
(1.27711 3.43285e-07 0)
(1.2771 3.0602e-07 0)
(1.2771 -3.42855e-07 0)
(1.3033 -5.30793e-07 0)
(1.3033 2.7698e-07 0)
(1.3033 5.31627e-07 0)
(1.30329 -2.768e-07 0)
(1.32834 -6.75335e-07 0)
(1.32834 1.63921e-07 0)
(1.32834 6.76074e-07 0)
(1.32834 -1.63987e-07 0)
(1.35211 -6.53069e-07 0)
(1.35211 2.64388e-10 0)
(1.35211 6.53875e-07 0)
(1.35211 -4.58565e-10 0)
(1.37445 -5.13994e-07 0)
(1.37445 -7.21395e-09 0)
(1.37445 5.14804e-07 0)
(1.37445 7.32024e-09 0)
(1.39518 -3.29784e-07 0)
(1.39517 1.98483e-08 0)
(1.39517 3.30685e-07 0)
(1.39517 -1.98563e-08 0)
(1.41402 -3.54689e-07 0)
(1.41402 7.68767e-08 0)
(1.41402 3.55233e-07 0)
(1.41402 -7.70144e-08 0)
(1.43068 -2.70002e-07 0)
(1.43068 8.81268e-08 0)
(1.43068 2.70519e-07 0)
(1.43068 -8.82169e-08 0)
(1.44477 -2.93672e-07 0)
(1.44477 -5.78832e-08 0)
(1.44477 2.94043e-07 0)
(1.44477 5.76673e-08 0)
(1.4559 -2.63681e-07 0)
(1.4559 -3.94549e-08 0)
(1.4559 2.63796e-07 0)
(1.4559 3.93905e-08 0)
(1.46365 -1.39155e-07 0)
(1.46365 -9.70577e-09 0)
(1.46365 1.38914e-07 0)
(1.46365 9.3811e-09 0)
(1.46761 -3.74653e-08 0)
(1.4676 4.49373e-09 0)
(1.4676 3.76358e-08 0)
(1.4676 -4.23764e-09 0)
)
;

boundaryField
{
    inlet
    {
        type            cyclic;
    }
    outlet
    {
        type            cyclic;
    }
    fixedWalls-bottom
    {
        type            noSlip;
    }
    fixedWalls-top
    {
        type            symmetry;
    }
    frontAndBack
    {
        type            empty;
    }
}


// ************************************************************************* //
