/*--------------------------------*- C++ -*----------------------------------*\
  =========                 |
  \\      /  F ield         | OpenFOAM: The Open Source CFD Toolbox
   \\    /   O peration     | Website:  https://openfoam.org
    \\  /    A nd           | Version:  10
     \\/     M anipulation  |
\*---------------------------------------------------------------------------*/
FoamFile
{
    format      ascii;
    class       volScalarField;
    location    "4556";
    object      omega;
}
// * * * * * * * * * * * * * * * * * * * * * * * * * * * * * * * * * * * * * //

dimensions      [0 0 -1 0 0 0 0];

internalField   nonuniform List<scalar> 
400
(
2316.57
2316.57
2316.57
2316.57
400.166
400.166
400.166
400.165
142.877
142.875
142.875
142.875
76.7855
76.7825
76.7827
76.7827
51.2665
51.2652
51.2661
51.2661
37.98
37.9805
37.9816
37.9815
29.767
29.7686
29.7695
29.7696
24.1812
24.1832
24.1839
24.1838
20.1586
20.1604
20.1607
20.1605
17.149
17.1504
17.1504
17.1502
14.8312
14.8323
14.8321
14.8316
13.0038
13.0045
13.0041
13.0034
11.5334
11.5338
11.5333
11.5325
10.3291
10.3293
10.3287
10.3277
9.32714
9.32718
9.32648
9.32545
8.48174
8.48168
8.48092
8.47989
7.75943
7.75932
7.75851
7.75755
7.13528
7.13513
7.13429
7.13346
6.59046
6.59029
6.58945
6.5888
6.11058
6.1104
6.10957
6.10915
5.6845
5.68433
5.68353
5.68335
5.30354
5.30339
5.30265
5.30267
4.96084
4.96071
4.96009
4.96025
4.65092
4.6508
4.65031
4.65056
4.36933
4.36921
4.36885
4.36918
4.11241
4.1123
4.11207
4.11248
3.87716
3.87708
3.87696
3.87744
3.66108
3.66103
3.66101
3.66157
3.4621
3.46207
3.46209
3.46275
3.27839
3.27834
3.27848
3.27921
3.10846
3.10845
3.10861
3.10944
2.951
2.95108
2.95122
2.95213
2.80499
2.80495
2.80522
2.80617
2.66929
2.66928
2.66956
2.67056
2.5431
2.5431
2.54339
2.54444
2.42563
2.42563
2.42593
2.42703
2.31619
2.31619
2.3165
2.31763
2.21415
2.21415
2.21445
2.2156
2.11893
2.11893
2.11922
2.12037
2.03
2.03002
2.03026
2.03142
1.94688
1.94696
1.9471
1.94826
1.86907
1.86922
1.86933
1.87046
1.79629
1.79642
1.79653
1.79763
1.72812
1.72823
1.72834
1.7294
1.66424
1.66433
1.66444
1.66547
1.60436
1.60445
1.60455
1.60554
1.54822
1.54831
1.5484
1.54935
1.49556
1.49564
1.49572
1.49663
1.44605
1.44612
1.4462
1.44705
1.39942
1.39946
1.39955
1.40034
1.35543
1.35542
1.35553
1.35625
1.31383
1.31379
1.31393
1.31458
1.27447
1.27445
1.27455
1.27516
1.23721
1.2372
1.23727
1.23782
1.20188
1.20188
1.20194
1.20244
1.16838
1.16838
1.16844
1.16888
1.13658
1.13658
1.13665
1.13703
1.10635
1.1064
1.10643
1.10677
1.07763
1.07767
1.0777
1.07799
1.0503
1.05033
1.05035
1.0506
1.02428
1.0243
1.02433
1.02452
0.999486
0.999495
0.999532
0.999683
0.975841
0.975852
0.975899
0.975997
0.953272
0.953284
0.953343
0.95339
0.931702
0.931712
0.93178
0.931789
0.911051
0.91106
0.911124
0.911119
0.891248
0.891255
0.891311
0.891302
0.872224
0.872228
0.872274
0.872264
0.853918
0.853914
0.85395
0.853938
0.836274
0.836254
0.836282
0.836263
0.819224
0.819207
0.819218
0.819185
0.802736
0.802719
0.802716
0.802665
0.786764
0.786761
0.78674
0.786659
0.771274
0.771262
0.771255
0.771135
0.756237
0.756229
0.756201
0.756067
0.741626
0.741615
0.741564
0.741426
0.727419
0.727362
0.727345
0.727183
0.713586
0.713527
0.713503
0.713314
0.700114
0.700077
0.700026
0.699803
0.687001
0.686908
0.686928
0.686636
0.674159
0.674131
0.674124
0.673817
0.661694
0.661679
0.661656
0.661322
0.649566
0.649573
0.649476
0.649164
0.637782
0.637743
0.637688
0.637312
0.626374
0.626191
0.626248
0.625787
0.615232
0.615056
0.6151
0.614615
0.604417
0.604295
0.604266
0.603809
0.593914
0.593966
0.593772
0.593387
0.583892
0.583943
0.583774
0.583347
0.574318
0.574318
0.574242
0.573745
0.56524
0.56528
0.565087
0.564661
0.556721
0.556631
0.556566
0.556096
0.548811
0.548743
0.548636
0.548119
0.541635
0.541333
0.541497
0.540794
0.535105
0.534812
0.534975
0.534265
0.529383
0.52914
0.52926
0.528589
0.524504
0.524425
0.524411
0.523861
0.520775
0.520696
0.520549
0.520147
0.518136
0.518185
0.51785
0.517489
0.516708
0.516714
0.516355
0.515986
)
;

boundaryField
{
    inlet
    {
        type            cyclic;
    }
    outlet
    {
        type            cyclic;
    }
    fixedWalls-bottom
    {
        beta1           0.075;
        blended         0;
        type            omegaWallFunction;
        value           uniform 2316.57;
    }
    fixedWalls-top
    {
        type            symmetry;
    }
    frontAndBack
    {
        type            empty;
    }
}


// ************************************************************************* //
