y,U_x,U_y,U_z,k,nut
0,0,0,0,2.22045e-16,0
0.00502513,0.0150838,1.09269e-19,0,2.22045e-16,1.74118e-20
0.0100503,0.0300445,3.45376e-19,0,2.22045e-16,6.04162e-20
0.0150754,0.0449299,7.8426e-19,0,2.22045e-16,1.40082e-19
0.0201005,0.05974,1.37785e-18,0,2.22045e-16,2.5913e-19
0.0251256,0.0744747,2.18369e-18,0,2.22045e-16,4.16878e-19
0.0301508,0.0891338,3.19021e-18,0,2.22045e-16,6.11214e-19
0.0351759,0.103718,4.29869e-18,0,2.22045e-16,8.40271e-19
0.040201,0.118225,5.40251e-18,0,2.22045e-16,1.10325e-18
0.0452261,0.132658,6.53247e-18,0,2.22045e-16,1.40033e-18
0.0502513,0.147015,7.68416e-18,0,2.22045e-16,1.73223e-18
0.0552764,0.161297,8.72918e-18,0,2.22045e-16,2.09931e-18
0.0603015,0.175504,9.60631e-18,0,2.22045e-16,2.50106e-18
0.0653266,0.189636,1.04707e-17,0,2.22045e-16,2.93618e-18
0.0703518,0.203686,1.1292e-17,0,2.22045e-16,3.40621e-18
0.0753769,0.21766,1.17054e-17,0,2.22045e-16,3.90568e-18
0.080402,0.231559,1.17406e-17,0,2.22045e-16,4.43191e-18
0.0854271,0.245382,1.16877e-17,0,2.22045e-16,4.98201e-18
0.0904523,0.259132,1.17317e-17,0,2.22045e-16,5.55292e-18
0.0954774,0.272808,1.18344e-17,0,2.22045e-16,6.14154e-18
0.100503,0.286411,1.18097e-17,0,2.22045e-16,6.7448e-18
0.105528,0.299938,1.14718e-17,0,2.22045e-16,7.36012e-18
0.110553,0.313378,1.11734e-17,0,2.22045e-16,7.98477e-18
0.115578,0.326744,1.10289e-17,0,2.22045e-16,8.61377e-18
0.120603,0.340039,1.083e-17,0,2.22045e-16,9.24469e-18
0.125628,0.353263,1.04704e-17,0,2.22045e-16,9.87541e-18
0.130653,0.366416,9.94802e-18,0,2.22045e-16,1.05041e-17
0.135678,0.379473,9.17228e-18,0,2.22045e-16,1.11267e-17
0.140704,0.39246,8.32911e-18,0,2.22045e-16,1.17428e-17
0.145729,0.405378,7.61405e-18,0,2.22045e-16,1.23515e-17
0.150754,0.418229,7.15203e-18,0,2.22045e-16,1.29524e-17
0.155779,0.430987,6.96468e-18,0,2.22045e-16,1.35409e-17
0.160804,0.443669,6.74743e-18,0,2.22045e-16,1.41183e-17
0.165829,0.456285,6.32044e-18,0,2.22045e-16,1.46858e-17
0.170854,0.468837,5.56864e-18,0,2.22045e-16,1.52433e-17
0.175879,0.481284,3.93991e-18,0,2.22045e-16,1.57839e-17
0.180905,0.493666,1.96885e-18,0,2.22045e-16,1.63137e-17
0.18593,0.505985,-2.66855e-19,0,2.22045e-16,1.68332e-17
0.190955,0.518217,-2.69205e-18,0,2.22045e-16,1.73381e-17
0.19598,0.530367,-5.39706e-18,0,2.22045e-16,1.78293e-17
0.201005,0.542456,-8.25019e-18,0,2.22045e-16,1.83104e-17
0.20603,0.554467,-1.12385e-17,0,2.22045e-16,1.87785e-17
0.211055,0.566386,-1.40803e-17,0,2.22045e-16,1.92313e-17
0.21608,0.578248,-1.69362e-17,0,2.22045e-16,1.96749e-17
0.221106,0.590032,-1.98905e-17,0,2.22045e-16,2.01058e-17
0.226131,0.601723,-2.34777e-17,0,2.22045e-16,2.05219e-17
0.231156,0.61336,-2.74233e-17,0,2.22045e-16,2.09296e-17
0.236181,0.624911,-3.19431e-17,0,2.22045e-16,2.13238e-17
0.241206,0.636378,-3.65984e-17,0,2.22045e-16,2.17056e-17
0.246231,0.647795,-4.12311e-17,0,2.22045e-16,2.20801e-17
0.251256,0.659105,-4.52071e-17,0,2.22045e-16,2.24393e-17
0.256281,0.670354,-4.85247e-17,0,2.22045e-16,2.27901e-17
0.261307,0.681541,-5.11922e-17,0,2.22045e-16,2.31326e-17
0.266332,0.69262,-5.3346e-17,0,2.22045e-16,2.34614e-17
0.271357,0.703655,-5.54332e-17,0,2.22045e-16,2.3785e-17
0.276382,0.714592,-5.7549e-17,0,2.22045e-16,2.40971e-17
0.281407,0.725459,-5.95293e-17,0,2.22045e-16,2.44021e-17
0.286432,0.736268,-6.13957e-17,0,2.22045e-16,2.47011e-17
0.291457,0.746967,-6.27898e-17,0,2.22045e-16,2.49905e-17
0.296482,0.75763,-6.40506e-17,0,2.22045e-16,2.5277e-17
0.301508,0.768178,-6.49738e-17,0,2.22045e-16,2.55554e-17
0.306533,0.778676,-6.59899e-17,0,2.22045e-16,2.58313e-17
0.311558,0.78909,-6.7164e-17,0,2.22045e-16,2.6103e-17
0.316583,0.799423,-6.85832e-17,0,2.22045e-16,2.63722e-17
0.321608,0.809701,-7.01674e-17,0,2.22045e-16,2.66396e-17
0.326633,0.81987,-7.14406e-17,0,2.22045e-16,2.69053e-17
0.331658,0.830012,-7.26358e-17,0,2.22045e-16,2.71706e-17
0.336683,0.840018,-7.32591e-17,0,2.22045e-16,2.74356e-17
0.341709,0.850002,-7.38512e-17,0,2.22045e-16,2.77009e-17
0.346734,0.859863,-7.43253e-17,0,2.22045e-16,2.79678e-17
0.351759,0.869689,-7.47934e-17,0,2.22045e-16,2.82358e-17
0.356784,0.879407,-7.52439e-17,0,2.22045e-16,2.8507e-17
0.361809,0.889074,-7.55665e-17,0,2.22045e-16,2.87802e-17
0.366834,0.898647,-7.56517e-17,0,2.22045e-16,2.90574e-17
0.371859,0.908158,-7.54649e-17,0,2.22045e-16,2.93374e-17
0.376884,0.917584,-7.49045e-17,0,2.22045e-16,2.96215e-17
0.38191,0.92694,-7.40978e-17,0,2.22045e-16,2.99087e-17
0.386935,0.936217,-7.30084e-17,0,2.22045e-16,3.01994e-17
0.39196,0.94542,-7.1568e-17,0,2.22045e-16,3.04928e-17
0.396985,0.954546,-6.9751e-17,0,2.22045e-16,3.07892e-17
0.40201,0.963599,-6.79536e-17,0,2.22045e-16,3.10875e-17
0.407035,0.972571,-6.61784e-17,0,2.22045e-16,3.1388e-17
0.41206,0.981476,-6.47836e-17,0,2.22045e-16,3.16898e-17
0.417085,0.990292,-6.38903e-17,0,2.22045e-16,3.19933e-17
0.422111,0.999052,-6.3071e-17,0,2.22045e-16,3.22975e-17
0.427136,1.00771,-6.23818e-17,0,2.22045e-16,3.26031e-17
0.432161,1.01633,-6.16864e-17,0,2.22045e-16,3.29091e-17
0.437186,1.02482,-6.0974e-17,0,2.22045e-16,3.32164e-17
0.442211,1.0333,-6.02585e-17,0,2.22045e-16,3.35238e-17
0.447236,1.04163,-5.95231e-17,0,2.22045e-16,3.38326e-17
0.452261,1.04997,-5.87877e-17,0,2.22045e-16,3.41414e-17
0.457286,1.05814,-5.765e-17,0,2.22045e-16,3.44519e-17
0.462312,1.06632,-5.65047e-17,0,2.22045e-16,3.47624e-17
0.467337,1.07435,-5.49038e-17,0,2.22045e-16,3.50746e-17
0.472362,1.08236,-5.31845e-17,0,2.22045e-16,3.53872e-17
0.477387,1.09027,-5.12114e-17,0,2.22045e-16,3.57013e-17
0.482412,1.09811,-4.90512e-17,0,2.22045e-16,3.60165e-17
0.487437,1.10589,-4.65287e-17,0,2.22045e-16,3.63325e-17
0.492462,1.11355,-4.32565e-17,0,2.22045e-16,3.66504e-17
0.497487,1.1212,-3.99388e-17,0,2.22045e-16,3.69684e-17
0.502513,1.12869,-3.56425e-17,0,2.22045e-16,3.72888e-17
0.507538,1.13618,-3.13463e-17,0,2.22045e-16,3.76091e-17
0.512563,1.14354,-2.76855e-17,0,2.22045e-16,3.79304e-17
0.517588,1.15085,-2.42589e-17,0,2.22045e-16,3.82521e-17
0.522613,1.1581,-2.14431e-17,0,2.22045e-16,3.85751e-17
0.527638,1.16523,-1.96045e-17,0,2.22045e-16,3.89001e-17
0.532663,1.17237,-1.77734e-17,0,2.22045e-16,3.9225e-17
0.537688,1.17932,-1.73331e-17,0,2.22045e-16,3.95555e-17
0.542714,1.18627,-1.68929e-17,0,2.22045e-16,3.9886e-17
0.547739,1.19312,-1.73492e-17,0,2.22045e-16,4.02197e-17
0.552764,1.19988,-1.8422e-17,0,2.22045e-16,4.05556e-17
0.557789,1.20662,-1.96687e-17,0,2.22045e-16,4.08923e-17
0.562814,1.21321,-2.19349e-17,0,2.22045e-16,4.12341e-17
0.567839,1.21979,-2.42012e-17,0,2.22045e-16,4.15759e-17
0.572864,1.22624,-2.61316e-17,0,2.22045e-16,4.19221e-17
0.577889,1.23263,-2.78924e-17,0,2.22045e-16,4.22705e-17
0.582915,1.239,-2.95424e-17,0,2.22045e-16,4.262e-17
0.58794,1.2452,-3.05544e-17,0,2.22045e-16,4.29756e-17
0.592965,1.2514,-3.15665e-17,0,2.22045e-16,4.33312e-17
0.59799,1.25749,-3.33463e-17,0,2.22045e-16,4.36914e-17
0.603015,1.26349,-3.5646e-17,0,2.22045e-16,4.40547e-17
0.60804,1.2695,-3.79436e-17,0,2.22045e-16,4.4418e-17
0.613065,1.27531,-3.99878e-17,0,2.22045e-16,4.47891e-17
0.61809,1.28112,-4.20321e-17,0,2.22045e-16,4.51602e-17
0.623116,1.28685,-4.33838e-17,0,2.22045e-16,4.55344e-17
0.628141,1.29246,-4.36251e-17,0,2.22045e-16,4.59136e-17
0.633166,1.29807,-4.38663e-17,0,2.22045e-16,4.62928e-17
0.638191,1.30353,-4.34786e-17,0,2.22045e-16,4.66781e-17
0.643216,1.30893,-4.28496e-17,0,2.22045e-16,4.70659e-17
0.648241,1.31433,-4.22166e-17,0,2.22045e-16,4.74538e-17
0.653266,1.31953,-4.14195e-17,0,2.22045e-16,4.785e-17
0.658291,1.32473,-4.06224e-17,0,2.22045e-16,4.82462e-17
0.663317,1.32987,-4.00796e-17,0,2.22045e-16,4.86439e-17
0.668342,1.33486,-4.01682e-17,0,2.22045e-16,4.90453e-17
0.673367,1.33985,-4.02568e-17,0,2.22045e-16,4.94468e-17
0.678392,1.34473,-4.06269e-17,0,2.22045e-16,4.98512e-17
0.683417,1.34951,-4.12657e-17,0,2.22045e-16,5.02586e-17
0.688442,1.35429,-4.19045e-17,0,2.22045e-16,5.06659e-17
0.693467,1.35892,-4.25708e-17,0,2.22045e-16,5.1078e-17
0.698492,1.36348,-4.32491e-17,0,2.22045e-16,5.14922e-17
0.703518,1.36805,-4.39274e-17,0,2.22045e-16,5.19064e-17
0.708543,1.37243,-4.41874e-17,0,2.22045e-16,5.23255e-17
0.713568,1.37677,-4.43695e-17,0,2.22045e-16,5.27455e-17
0.718593,1.38112,-4.45515e-17,0,2.22045e-16,5.31656e-17
0.723618,1.38526,-4.38619e-17,0,2.22045e-16,5.3594e-17
0.728643,1.38938,-4.31247e-17,0,2.22045e-16,5.4023e-17
0.733668,1.3935,-4.23789e-17,0,2.22045e-16,5.44521e-17
0.738693,1.39741,-4.09658e-17,0,2.22045e-16,5.48911e-17
0.743719,1.40131,-3.95528e-17,0,2.22045e-16,5.53302e-17
0.748744,1.4052,-3.81309e-17,0,2.22045e-16,5.57693e-17
0.753769,1.40888,-3.64723e-17,0,2.22045e-16,5.62077e-17
0.758794,1.41255,-3.48136e-17,0,2.22045e-16,5.66461e-17
0.763819,1.41622,-3.31565e-17,0,2.22045e-16,5.70846e-17
0.768844,1.41967,-3.15898e-17,0,2.22045e-16,5.75242e-17
0.773869,1.42311,-3.0023e-17,0,2.22045e-16,5.79637e-17
0.778894,1.42656,-2.84562e-17,0,2.22045e-16,5.84033e-17
0.78392,1.42978,-2.71697e-17,0,2.22045e-16,5.88472e-17
0.788945,1.43299,-2.58961e-17,0,2.22045e-16,5.92913e-17
0.79397,1.4362,-2.46225e-17,0,2.22045e-16,5.97354e-17
0.798995,1.43921,-2.41644e-17,0,2.22045e-16,6.01787e-17
0.80402,1.44219,-2.38485e-17,0,2.22045e-16,6.06218e-17
0.809045,1.44516,-2.35327e-17,0,2.22045e-16,6.10649e-17
0.81407,1.44797,-2.35161e-17,0,2.22045e-16,6.1507e-17
0.819095,1.4507,-2.36257e-17,0,2.22045e-16,6.19487e-17
0.824121,1.45343,-2.37353e-17,0,2.22045e-16,6.23904e-17
0.829146,1.45604,-2.32628e-17,0,2.22045e-16,6.28293e-17
0.834171,1.45853,-2.2232e-17,0,2.22045e-16,6.32654e-17
0.839196,1.46102,-2.12013e-17,0,2.22045e-16,6.37015e-17
0.844221,1.46345,-1.98332e-17,0,2.22045e-16,6.41359e-17
0.849246,1.46569,-1.7566e-17,0,2.22045e-16,6.45657e-17
0.854271,1.46793,-1.52988e-17,0,2.22045e-16,6.49956e-17
0.859296,1.47018,-1.30315e-17,0,2.22045e-16,6.54255e-17
0.864322,1.47217,-1.02753e-17,0,2.22045e-16,6.58448e-17
0.869347,1.47416,-7.51385e-18,0,2.22045e-16,6.62639e-17
0.874372,1.47616,-4.75242e-18,0,2.22045e-16,6.6683e-17
0.879397,1.47798,-2.30877e-18,0,2.22045e-16,6.70904e-17
0.884422,1.47972,-2.89206e-20,0,2.22045e-16,6.74917e-17
0.889447,1.48146,2.25093e-18,0,2.22045e-16,6.7893e-17
0.894472,1.48313,4.27857e-18,0,2.22045e-16,6.82869e-17
0.899497,1.48461,5.66809e-18,0,2.22045e-16,6.86624e-17
0.904523,1.48609,7.05762e-18,0,2.22045e-16,6.90379e-17
0.909548,1.48757,8.44715e-18,0,2.22045e-16,6.94134e-17
0.914573,1.48883,9.49907e-18,0,2.22045e-16,6.97624e-17
0.919598,1.49005,1.04956e-17,0,2.22045e-16,7.01072e-17
0.924623,1.49127,1.14922e-17,0,2.22045e-16,7.04519e-17
0.929648,1.49238,1.23269e-17,0,2.22045e-16,7.07821e-17
0.934673,1.49334,1.29048e-17,0,2.22045e-16,7.10892e-17
0.939698,1.4943,1.34827e-17,0,2.22045e-16,7.13962e-17
0.944724,1.49525,1.40606e-17,0,2.22045e-16,7.17032e-17
0.949749,1.49597,1.35906e-17,0,2.22045e-16,7.1967e-17
0.954774,1.49666,1.29572e-17,0,2.22045e-16,7.22241e-17
0.959799,1.49735,1.23238e-17,0,2.22045e-16,7.24811e-17
0.964824,1.49796,1.13638e-17,0,2.22045e-16,7.27205e-17
0.969849,1.49837,9.6197e-18,0,2.22045e-16,7.29171e-17
0.974874,1.49879,7.87556e-18,0,2.22045e-16,7.31138e-17
0.979899,1.4992,6.13143e-18,0,2.22045e-16,7.33105e-17
0.984925,1.49943,4.54206e-18,0,2.22045e-16,7.34296e-17
0.98995,1.49956,3.02804e-18,0,2.22045e-16,7.35109e-17
0.994975,1.4997,1.51402e-18,0,2.22045e-16,7.35923e-17
1,1.49984,0,0,2.22045e-16,7.36736e-17