/*--------------------------------*- C++ -*----------------------------------*\
  =========                 |
  \\      /  F ield         | OpenFOAM: The Open Source CFD Toolbox
   \\    /   O peration     | Website:  https://openfoam.org
    \\  /    A nd           | Version:  10
     \\/     M anipulation  |
\*---------------------------------------------------------------------------*/
FoamFile
{
    format      ascii;
    class       volScalarField;
    location    "2500";
    object      k;
}
// * * * * * * * * * * * * * * * * * * * * * * * * * * * * * * * * * * * * * //

dimensions      [0 2 -2 0 0 0 0];

internalField   nonuniform List<scalar> 
400
(
1.27248e-07
1.27408e-07
1.27563e-07
1.27539e-07
3.81884e-06
3.82365e-06
3.82829e-06
3.82758e-06
2.704e-05
2.70741e-05
2.71069e-05
2.71019e-05
9.80661e-05
9.81908e-05
9.83093e-05
9.82911e-05
0.000251583
0.000251908
0.000252208
0.000252161
0.00052187
0.000522553
0.000523163
0.000523062
0.000931572
0.000932801
0.000933845
0.000933661
0.00147882
0.00148075
0.0014823
0.00148201
0.00213306
0.00213572
0.00213776
0.00213734
0.00284607
0.00284932
0.00285176
0.00285122
0.00356989
0.00357347
0.00357617
0.00357552
0.00426876
0.00427235
0.00427517
0.00427444
0.0049215
0.00492483
0.00492768
0.00492687
0.00551858
0.00552148
0.00552427
0.00552339
0.00605813
0.00606053
0.00606321
0.00606222
0.00654287
0.00654494
0.00654744
0.00654627
0.00697687
0.00697862
0.00698092
0.00697951
0.00736415
0.0073656
0.00736765
0.00736599
0.00770883
0.00771006
0.0077118
0.00770992
0.00801498
0.0080161
0.00801745
0.00801546
0.00828646
0.0082876
0.0082885
0.00828652
0.00852686
0.00852814
0.00852851
0.00852661
0.00873942
0.00874096
0.00874074
0.00873898
0.00892709
0.00892881
0.00892806
0.00892653
0.00909246
0.00909429
0.00909315
0.00909184
0.00923785
0.00923972
0.00923831
0.00923721
0.00936528
0.00936714
0.00936554
0.00936466
0.00947655
0.00947833
0.00947664
0.00947596
0.00957322
0.00957488
0.00957317
0.00957269
0.00965666
0.00965815
0.00965653
0.00965618
0.00972807
0.00972935
0.00972793
0.00972763
0.00978848
0.00978953
0.00978829
0.00978805
0.00983875
0.00983959
0.00983853
0.00983846
0.00987964
0.00988029
0.00987942
0.00987961
0.00991183
0.0099123
0.00991161
0.00991203
0.00993585
0.00993617
0.00993564
0.00993628
0.00995217
0.00995235
0.00995198
0.00995284
0.00996117
0.00996125
0.00996102
0.0099621
0.00996317
0.00996316
0.00996306
0.00996438
0.00995843
0.00995837
0.00995839
0.00995994
0.00994717
0.00994705
0.0099472
0.00994899
0.00992953
0.00992956
0.00992967
0.0099317
0.00990579
0.00990586
0.00990596
0.00990823
0.00987604
0.0098761
0.0098762
0.00987868
0.00984035
0.00984039
0.00984049
0.00984316
0.00979881
0.0097988
0.0097989
0.00980174
0.00975146
0.00975141
0.00975152
0.00975449
0.00969835
0.00969827
0.00969837
0.00970146
0.00963952
0.00963941
0.00963952
0.00964269
0.00957501
0.00957488
0.009575
0.00957823
0.00950484
0.00950471
0.00950483
0.00950809
0.00942903
0.00942891
0.00942904
0.00943232
0.00934762
0.00934751
0.00934765
0.00935092
0.00926062
0.00926052
0.00926068
0.00926393
0.00916806
0.00916794
0.00916813
0.00917135
0.00906999
0.00906976
0.00907003
0.0090732
0.00896646
0.00896598
0.00896637
0.0089695
0.00885728
0.00885666
0.00885716
0.00886026
0.00874247
0.00874196
0.0087424
0.0087455
0.00862205
0.00862185
0.00862213
0.00862525
0.00849625
0.0084962
0.00849638
0.00849952
0.00836507
0.00836507
0.0083652
0.00836839
0.0082286
0.00822858
0.00822864
0.00823193
0.00808694
0.00808685
0.00808688
0.0080903
0.00794031
0.00794018
0.00794018
0.00794374
0.00778913
0.00778895
0.00778895
0.00779264
0.00763399
0.00763385
0.00763385
0.00763755
0.00747574
0.00747575
0.00747573
0.00747922
0.00731516
0.00731537
0.00731534
0.00731846
0.00715202
0.00715234
0.00715234
0.00715539
0.00698591
0.00698623
0.00698628
0.0069895
0.0068169
0.00681719
0.00681727
0.00682061
0.00664517
0.0066454
0.00664548
0.0066489
0.00647089
0.00647099
0.00647105
0.00647452
0.00629411
0.00629411
0.00629412
0.00629766
0.006115
0.0061149
0.00611486
0.00611851
0.00593374
0.00593355
0.00593348
0.00593724
0.00575049
0.00575032
0.00575026
0.00575401
0.00556546
0.00556539
0.00556541
0.00556903
0.00537896
0.00537888
0.00537904
0.00538255
0.00519124
0.00519099
0.00519138
0.0051948
0.00500257
0.00500257
0.00500273
0.00500604
0.00481329
0.00481338
0.00481341
0.00481661
0.00462377
0.00462387
0.00462389
0.00462687
0.00443448
0.0044344
0.00443449
0.0044373
0.00424596
0.0042455
0.00424576
0.00424845
0.00405871
0.00405803
0.00405835
0.00406095
0.00387348
0.00387264
0.00387301
0.00387555
0.00369116
0.00369022
0.00369062
0.00369311
0.00351281
0.00351185
0.00351225
0.0035147
0.00333974
0.00333884
0.00333918
0.00334164
0.00317347
0.00317269
0.00317292
0.00317548
0.00301584
0.00301515
0.00301529
0.00301799
0.00286896
0.00286821
0.00286841
0.00287116
0.00273533
0.00273424
0.00273458
0.00273738
0.00261727
0.00261623
0.00261624
0.00261941
0.00251749
0.00251728
0.00251596
0.00252021
0.00243919
0.00243946
0.00243763
0.00244236
0.00238508
0.00238571
0.00238364
0.00238865
0.00235737
0.00235836
0.00235606
0.00236129
)
;

boundaryField
{
    inlet
    {
        type            cyclic;
    }
    outlet
    {
        type            cyclic;
    }
    fixedWalls-bottom
    {
        type            kqRWallFunction;
        value           nonuniform List<scalar> 4(1.27248e-07 1.27408e-07 1.27563e-07 1.27539e-07);
    }
    fixedWalls-top
    {
        type            symmetry;
    }
    frontAndBack
    {
        type            empty;
    }
}


// ************************************************************************* //
