/*--------------------------------*- C++ -*----------------------------------*\
  =========                 |
  \\      /  F ield         | OpenFOAM: The Open Source CFD Toolbox
   \\    /   O peration     | Website:  https://openfoam.org
    \\  /    A nd           | Version:  10
     \\/     M anipulation  |
\*---------------------------------------------------------------------------*/
FoamFile
{
    format      ascii;
    class       volScalarField;
    location    "2500";
    object      nut;
}
// * * * * * * * * * * * * * * * * * * * * * * * * * * * * * * * * * * * * * //

dimensions      [0 2 -1 0 0 0 0];

internalField   nonuniform List<scalar> 
400
(
1.98421e-11
1.98671e-11
1.98912e-11
1.98875e-11
3.48064e-09
3.48503e-09
3.48925e-09
3.48861e-09
7.31218e-08
7.32142e-08
7.33029e-08
7.32894e-08
5.60214e-07
5.60932e-07
5.6161e-07
5.61504e-07
2.49286e-06
2.49618e-06
2.49918e-06
2.49868e-06
7.86499e-06
7.87627e-06
7.88561e-06
7.88394e-06
1.94071e-05
1.94381e-05
1.94605e-05
1.9456e-05
3.96655e-05
3.97365e-05
3.97804e-05
3.97704e-05
6.99735e-05
7.01108e-05
7.01829e-05
7.01643e-05
0.00011019
0.000110416
0.00011052
0.00011049
0.000159265
0.000159592
0.000159725
0.000159683
0.000215957
0.000216376
0.000216535
0.00021648
0.00027923
0.000279716
0.000279894
0.000279826
0.000348383
0.000348898
0.000349088
0.000349007
0.000421689
0.000421813
0.00042205
0.000422025
0.000498882
0.000498926
0.000499163
0.000499125
0.000581458
0.000581482
0.000581708
0.000581626
0.000669607
0.000669628
0.000669838
0.00066969
0.000763246
0.000763276
0.000763464
0.000763241
0.000862163
0.000862225
0.000862379
0.000862082
0.000965956
0.000966078
0.000966179
0.000965826
0.0010742
0.00107441
0.00107443
0.00107404
0.00118652
0.00118685
0.00118677
0.00118636
0.00130239
0.00130282
0.00130264
0.00130224
0.00142114
0.00142165
0.00142139
0.00142101
0.00154205
0.00154261
0.0015423
0.00154195
0.00166436
0.00166495
0.00166459
0.00166429
0.00178729
0.00178788
0.00178748
0.00178724
0.00191006
0.00191062
0.00191021
0.00191002
0.00203193
0.00203244
0.00203204
0.0020319
0.00215224
0.00215268
0.00215232
0.00215219
0.00227036
0.00227071
0.00227042
0.00227029
0.00238579
0.00238605
0.00238582
0.00238572
0.00249809
0.00249825
0.00249808
0.00249805
0.00260691
0.00260698
0.00260686
0.00260691
0.002712
0.00271199
0.00271189
0.00271205
0.00281316
0.00281309
0.00281301
0.00281328
0.00291029
0.00291017
0.00291011
0.00291051
0.00300334
0.00300319
0.00300315
0.00300368
0.00309231
0.00309215
0.00309211
0.00309278
0.00317723
0.00317705
0.00317704
0.00317784
0.00325815
0.00325802
0.00325797
0.00325891
0.00333517
0.00333507
0.00333501
0.00333605
0.00340837
0.0034083
0.00340823
0.00340935
0.00347783
0.00347778
0.00347771
0.0034789
0.00354364
0.00354359
0.00354353
0.00354478
0.00360588
0.00360582
0.00360577
0.00360708
0.00366462
0.00366456
0.00366452
0.00366587
0.00371993
0.00371987
0.00371984
0.00372124
0.00377188
0.00377183
0.00377181
0.00377324
0.00382053
0.00382047
0.00382048
0.00382193
0.00386592
0.00386585
0.00386588
0.00386735
0.00390808
0.00390801
0.00390805
0.00390953
0.00394703
0.00394697
0.00394701
0.00394851
0.00398278
0.00398275
0.00398279
0.00398428
0.00401535
0.00401533
0.00401537
0.00401686
0.00404478
0.00404467
0.00404475
0.00404624
0.00407099
0.0040708
0.00407093
0.00407244
0.004094
0.00409381
0.00409393
0.00409547
0.00411386
0.00411377
0.00411384
0.00411542
0.00413083
0.0041308
0.00413085
0.00413248
0.00414525
0.00414526
0.00414536
0.00414705
0.00415782
0.00415784
0.00415809
0.00415979
0.0041697
0.00416984
0.00417034
0.00417184
0.00418277
0.00418335
0.0041842
0.00418493
0.00419986
0.00420128
0.00420247
0.00420135
0.00422405
0.00422649
0.00422779
0.00422356
0.00425508
0.00425796
0.00425901
0.00425203
0.00427571
0.00427427
0.00427818
0.00427796
0.00424623
0.00424469
0.00424865
0.00426537
0.0042129
0.00421121
0.00421486
0.00423226
0.00417576
0.00417415
0.00417689
0.00419496
0.00413448
0.00413413
0.00413485
0.00415371
0.0040905
0.0040886
0.00408965
0.00410857
0.00404055
0.00403954
0.00403991
0.00405993
0.00398792
0.00398615
0.00398706
0.00400721
0.00393204
0.00392868
0.00393053
0.00395076
0.00387097
0.00386931
0.00386851
0.00389103
0.00380691
0.00380476
0.00380383
0.00382701
0.00373886
0.00373657
0.00373565
0.00375881
0.00366717
0.00366496
0.00366411
0.00368642
0.00359229
0.00359064
0.00358944
0.00360989
0.00351535
0.00351342
0.00350987
0.00353081
0.00343421
0.00343265
0.00342763
0.00344891
0.00335076
0.00334868
0.0033429
0.003365
0.00326517
0.00326207
0.00325605
0.00327955
0.00317677
0.00317276
0.00316738
0.00319221
0.00308777
0.003082
0.00307672
0.00310311
0.00299668
0.00299083
0.00298502
0.00301271
0.00290498
0.00289986
0.00289301
0.00292233
0.00281411
0.00281029
0.00280152
0.00283393
0.00272556
0.00272307
0.00271276
0.0027486
0.00264154
0.00263944
0.00262974
0.00266432
0.00256426
0.00256028
0.00255373
0.00258181
0.00250092
0.0024858
0.0024841
0.00250845
0.00243136
0.00242508
0.00242219
0.00244642
0.00237703
0.00237564
0.0023723
0.00239792
0.00234001
0.00234213
0.00233949
0.00236653
0.00232271
0.00232934
0.00232815
0.00235711
0.00232641
0.00234334
0.00234344
0.00237313
)
;

boundaryField
{
    inlet
    {
        type            cyclic;
    }
    outlet
    {
        type            cyclic;
    }
    fixedWalls-bottom
    {
        type            nutkWallFunction;
        Cmu             0.09;
        kappa           0.41;
        E               9.8;
        value           uniform 0;
    }
    fixedWalls-top
    {
        type            symmetry;
    }
    frontAndBack
    {
        type            empty;
    }
}


// ************************************************************************* //
