/*--------------------------------*- C++ -*----------------------------------*\
  =========                 |
  \\      /  F ield         | OpenFOAM: The Open Source CFD Toolbox
   \\    /   O peration     | Website:  https://openfoam.org
    \\  /    A nd           | Version:  10
     \\/     M anipulation  |
\*---------------------------------------------------------------------------*/
FoamFile
{
    format      ascii;
    class       volVectorField;
    location    "2500";
    object      U;
}
// * * * * * * * * * * * * * * * * * * * * * * * * * * * * * * * * * * * * * //

dimensions      [0 1 -1 0 0 0 0];

internalField   nonuniform List<vector> 
400
(
(0.0217538 -8.14839e-09 0)
(0.0217541 3.3991e-11 0)
(0.0217557 -1.82364e-09 0)
(0.021757 3.28654e-11 0)
(0.06535 1.01218e-08 0)
(0.0653514 -1.68298e-08 0)
(0.0653565 -2.7716e-08 0)
(0.06536 1.70501e-08 0)
(0.109339 6.20218e-08 0)
(0.109342 -5.61417e-08 0)
(0.109351 -8.01295e-08 0)
(0.109356 5.65826e-08 0)
(0.153702 1.44136e-07 0)
(0.153707 -1.24597e-07 0)
(0.15372 -1.60926e-07 0)
(0.153727 1.25254e-07 0)
(0.198351 2.52974e-07 0)
(0.198359 -2.27068e-07 0)
(0.198376 -2.69167e-07 0)
(0.198383 2.2793e-07 0)
(0.243036 3.86995e-07 0)
(0.243048 -3.68312e-07 0)
(0.243069 -4.02902e-07 0)
(0.243077 3.69366e-07 0)
(0.28728 5.41719e-07 0)
(0.287295 -5.49615e-07 0)
(0.28732 -5.57362e-07 0)
(0.287327 5.50851e-07 0)
(0.330392 7.08196e-07 0)
(0.33041 -7.64473e-07 0)
(0.330437 -7.23559e-07 0)
(0.330443 7.65878e-07 0)
(0.371637 8.73621e-07 0)
(0.371656 -9.9634e-07 0)
(0.371682 -8.88706e-07 0)
(0.371687 9.979e-07 0)
(0.410443 1.02398e-06 0)
(0.410461 -1.2212e-06 0)
(0.410484 -1.03879e-06 0)
(0.410488 1.2229e-06 0)
(0.446516 1.14728e-06 0)
(0.44653 -1.41382e-06 0)
(0.446548 -1.16184e-06 0)
(0.44655 1.41565e-06 0)
(0.47981 1.23622e-06 0)
(0.479818 -1.55372e-06 0)
(0.479831 -1.25053e-06 0)
(0.479831 1.55566e-06 0)
(0.510446 1.28928e-06 0)
(0.510447 -1.62793e-06 0)
(0.510455 -1.30335e-06 0)
(0.510453 1.62997e-06 0)
(0.538626 1.30953e-06 0)
(0.53862 -1.63468e-06 0)
(0.538623 -1.32338e-06 0)
(0.53862 1.63681e-06 0)
(0.564595 1.29335e-06 0)
(0.564589 -1.61309e-06 0)
(0.564589 -1.30699e-06 0)
(0.564584 1.61531e-06 0)
(0.588608 1.24851e-06 0)
(0.588607 -1.57828e-06 0)
(0.588604 -1.26195e-06 0)
(0.588596 1.58057e-06 0)
(0.610868 1.17634e-06 0)
(0.610872 -1.56484e-06 0)
(0.610868 -1.18959e-06 0)
(0.610858 1.5672e-06 0)
(0.63154 1.08762e-06 0)
(0.631548 -1.57323e-06 0)
(0.631543 -1.1007e-06 0)
(0.631532 1.57566e-06 0)
(0.650773 9.92952e-07 0)
(0.650784 -1.59779e-06 0)
(0.650778 -1.00586e-06 0)
(0.650768 1.60027e-06 0)
(0.668706 9.00536e-07 0)
(0.668719 -1.63326e-06 0)
(0.668713 -9.13278e-07 0)
(0.668704 1.63579e-06 0)
(0.685466 8.16364e-07 0)
(0.68548 -1.6749e-06 0)
(0.685474 -8.2895e-07 0)
(0.685467 1.67748e-06 0)
(0.701172 7.44586e-07 0)
(0.701185 -1.71823e-06 0)
(0.701179 -7.57024e-07 0)
(0.701175 1.72085e-06 0)
(0.71593 6.88011e-07 0)
(0.715942 -1.75937e-06 0)
(0.715937 -7.00307e-07 0)
(0.715934 1.76204e-06 0)
(0.729838 6.47704e-07 0)
(0.729848 -1.79525e-06 0)
(0.729843 -6.59865e-07 0)
(0.729843 1.79795e-06 0)
(0.742983 6.23508e-07 0)
(0.742991 -1.82368e-06 0)
(0.742987 -6.35539e-07 0)
(0.742988 1.82642e-06 0)
(0.755445 6.13965e-07 0)
(0.755451 -1.84347e-06 0)
(0.755448 -6.25869e-07 0)
(0.755451 1.84623e-06 0)
(0.767298 6.16954e-07 0)
(0.767302 -1.85425e-06 0)
(0.767299 -6.28736e-07 0)
(0.767303 1.85705e-06 0)
(0.778607 6.30138e-07 0)
(0.778609 -1.85648e-06 0)
(0.778607 -6.41802e-07 0)
(0.778611 1.8593e-06 0)
(0.789431 6.51317e-07 0)
(0.789431 -1.85113e-06 0)
(0.789429 -6.62867e-07 0)
(0.789435 1.85398e-06 0)
(0.799823 6.78576e-07 0)
(0.799823 -1.83942e-06 0)
(0.799821 -6.90013e-07 0)
(0.799827 1.84229e-06 0)
(0.809832 7.10456e-07 0)
(0.809831 -1.82242e-06 0)
(0.80983 -7.21784e-07 0)
(0.809836 1.8253e-06 0)
(0.819501 7.45896e-07 0)
(0.819499 -1.80093e-06 0)
(0.819498 -7.57118e-07 0)
(0.819504 1.80384e-06 0)
(0.828867 7.84087e-07 0)
(0.828865 -1.77564e-06 0)
(0.828863 -7.95204e-07 0)
(0.82887 1.77857e-06 0)
(0.837964 8.24198e-07 0)
(0.837962 -1.74721e-06 0)
(0.83796 -8.3521e-07 0)
(0.837968 1.75016e-06 0)
(0.846824 8.65391e-07 0)
(0.846821 -1.71674e-06 0)
(0.846819 -8.76301e-07 0)
(0.846827 1.7197e-06 0)
(0.855471 9.06854e-07 0)
(0.855469 -1.68543e-06 0)
(0.855467 -9.17662e-07 0)
(0.855475 1.68841e-06 0)
(0.863931 9.47952e-07 0)
(0.863929 -1.6546e-06 0)
(0.863927 -9.5866e-07 0)
(0.863934 1.65758e-06 0)
(0.872223 9.88082e-07 0)
(0.872222 -1.62529e-06 0)
(0.87222 -9.98689e-07 0)
(0.872227 1.62829e-06 0)
(0.880367 1.02657e-06 0)
(0.880366 -1.59816e-06 0)
(0.880364 -1.03708e-06 0)
(0.880371 1.60117e-06 0)
(0.888378 1.0628e-06 0)
(0.888378 -1.57381e-06 0)
(0.888376 -1.07321e-06 0)
(0.888382 1.57684e-06 0)
(0.896271 1.09605e-06 0)
(0.896271 -1.55259e-06 0)
(0.896269 -1.10637e-06 0)
(0.896275 1.55563e-06 0)
(0.904058 1.12587e-06 0)
(0.904058 -1.5349e-06 0)
(0.904056 -1.13608e-06 0)
(0.904062 1.53794e-06 0)
(0.911749 1.15205e-06 0)
(0.91175 -1.52085e-06 0)
(0.911748 -1.16216e-06 0)
(0.911753 1.5239e-06 0)
(0.919355 1.1747e-06 0)
(0.919356 -1.51032e-06 0)
(0.919354 -1.18472e-06 0)
(0.919359 1.51338e-06 0)
(0.926884 1.19427e-06 0)
(0.926885 -1.50289e-06 0)
(0.926883 -1.20419e-06 0)
(0.926887 1.50595e-06 0)
(0.934342 1.21117e-06 0)
(0.934343 -1.4981e-06 0)
(0.934342 -1.22099e-06 0)
(0.934345 1.50116e-06 0)
(0.941737 1.22567e-06 0)
(0.941738 -1.49554e-06 0)
(0.941737 -1.23539e-06 0)
(0.94174 1.49861e-06 0)
(0.949074 1.23784e-06 0)
(0.949075 -1.49492e-06 0)
(0.949074 -1.24745e-06 0)
(0.949076 1.49799e-06 0)
(0.956357 1.24774e-06 0)
(0.956358 -1.49586e-06 0)
(0.956357 -1.25725e-06 0)
(0.956359 1.49893e-06 0)
(0.96359 1.25549e-06 0)
(0.963591 -1.49791e-06 0)
(0.963591 -1.2649e-06 0)
(0.963592 1.50097e-06 0)
(0.970778 1.2612e-06 0)
(0.970779 -1.50062e-06 0)
(0.970778 -1.27051e-06 0)
(0.97078 1.50368e-06 0)
(0.977923 1.2649e-06 0)
(0.977924 -1.50365e-06 0)
(0.977923 -1.27411e-06 0)
(0.977925 1.50671e-06 0)
(0.985028 1.2665e-06 0)
(0.985029 -1.50691e-06 0)
(0.985028 -1.2756e-06 0)
(0.985029 1.50997e-06 0)
(0.992094 1.26595e-06 0)
(0.992096 -1.51038e-06 0)
(0.992095 -1.27495e-06 0)
(0.992096 1.51343e-06 0)
(0.999125 1.26346e-06 0)
(0.999126 -1.51398e-06 0)
(0.999125 -1.27235e-06 0)
(0.999126 1.51703e-06 0)
(1.00612 1.25954e-06 0)
(1.00612 -1.51738e-06 0)
(1.00612 -1.26832e-06 0)
(1.00612 1.52042e-06 0)
(1.01308 1.2548e-06 0)
(1.01308 -1.52028e-06 0)
(1.01308 -1.26347e-06 0)
(1.01308 1.52331e-06 0)
(1.02001 1.24972e-06 0)
(1.02001 -1.52247e-06 0)
(1.02001 -1.25827e-06 0)
(1.02001 1.52549e-06 0)
(1.02691 1.24422e-06 0)
(1.02691 -1.5242e-06 0)
(1.02691 -1.25266e-06 0)
(1.02691 1.5272e-06 0)
(1.03377 1.23808e-06 0)
(1.03377 -1.52603e-06 0)
(1.03377 -1.24641e-06 0)
(1.03377 1.52902e-06 0)
(1.0406 1.23067e-06 0)
(1.0406 -1.52841e-06 0)
(1.0406 -1.23888e-06 0)
(1.0406 1.53138e-06 0)
(1.0474 1.22119e-06 0)
(1.0474 -1.53123e-06 0)
(1.0474 -1.22928e-06 0)
(1.0474 1.53419e-06 0)
(1.05417 1.20761e-06 0)
(1.05417 -1.53337e-06 0)
(1.05417 -1.21558e-06 0)
(1.05417 1.53631e-06 0)
(1.06089 1.18738e-06 0)
(1.06089 -1.5315e-06 0)
(1.06089 -1.19522e-06 0)
(1.06089 1.53442e-06 0)
(1.06757 1.16054e-06 0)
(1.06757 -1.51711e-06 0)
(1.06757 -1.16824e-06 0)
(1.06757 1.52e-06 0)
(1.0742 1.13683e-06 0)
(1.0742 -1.47469e-06 0)
(1.07419 -1.14441e-06 0)
(1.07419 1.47758e-06 0)
(1.08075 1.15035e-06 0)
(1.08075 -1.381e-06 0)
(1.08074 -1.1578e-06 0)
(1.08075 1.38392e-06 0)
(1.08723 1.26221e-06 0)
(1.08722 -1.21464e-06 0)
(1.08721 -1.26952e-06 0)
(1.08723 1.21757e-06 0)
(1.0936 1.51972e-06 0)
(1.09359 -9.742e-07 0)
(1.09358 -1.52687e-06 0)
(1.09361 9.76803e-07 0)
(1.0999 1.79694e-06 0)
(1.09989 -6.78385e-07 0)
(1.09988 -1.80399e-06 0)
(1.09991 6.80965e-07 0)
(1.10617 2.07256e-06 0)
(1.10616 -3.6424e-07 0)
(1.10614 -2.07944e-06 0)
(1.10617 3.67129e-07 0)
(1.11239 2.18594e-06 0)
(1.11239 -6.85734e-08 0)
(1.11237 -2.19267e-06 0)
(1.11239 7.13957e-08 0)
(1.11859 2.18818e-06 0)
(1.11858 1.90624e-07 0)
(1.11857 -2.19478e-06 0)
(1.11858 -1.879e-07 0)
(1.12474 2.11634e-06 0)
(1.12474 3.97756e-07 0)
(1.12473 -2.1228e-06 0)
(1.12474 -3.95134e-07 0)
(1.13086 2.01519e-06 0)
(1.13086 5.5787e-07 0)
(1.13085 -2.02149e-06 0)
(1.13085 -5.55283e-07 0)
(1.13694 1.89976e-06 0)
(1.13694 6.70935e-07 0)
(1.13693 -1.90591e-06 0)
(1.13693 -6.68385e-07 0)
(1.14297 1.77e-06 0)
(1.14297 7.47092e-07 0)
(1.14296 -1.776e-06 0)
(1.14296 -7.44572e-07 0)
(1.14895 1.63095e-06 0)
(1.14895 7.88219e-07 0)
(1.14895 -1.63677e-06 0)
(1.14894 -7.85743e-07 0)
(1.15488 1.47191e-06 0)
(1.15489 7.94008e-07 0)
(1.15488 -1.47754e-06 0)
(1.15487 -7.91581e-07 0)
(1.16076 1.29381e-06 0)
(1.16076 7.66753e-07 0)
(1.16076 -1.29923e-06 0)
(1.16075 -7.64382e-07 0)
(1.16657 1.09134e-06 0)
(1.16658 7.20456e-07 0)
(1.16657 -1.09655e-06 0)
(1.16656 -7.18156e-07 0)
(1.17231 8.71382e-07 0)
(1.17232 6.81942e-07 0)
(1.17232 -8.76404e-07 0)
(1.17231 -6.79694e-07 0)
(1.17798 6.50302e-07 0)
(1.17799 6.56395e-07 0)
(1.17799 -6.55113e-07 0)
(1.17798 -6.54236e-07 0)
(1.18357 4.55391e-07 0)
(1.18358 6.64093e-07 0)
(1.18357 -4.59952e-07 0)
(1.18356 -6.61993e-07 0)
(1.18906 3.0493e-07 0)
(1.18907 6.91957e-07 0)
(1.18906 -3.09264e-07 0)
(1.18906 -6.89936e-07 0)
(1.19445 2.03417e-07 0)
(1.19445 7.37259e-07 0)
(1.19445 -2.07509e-07 0)
(1.19444 -7.35333e-07 0)
(1.19972 1.37468e-07 0)
(1.19972 8.01403e-07 0)
(1.19971 -1.41316e-07 0)
(1.19971 -7.99547e-07 0)
(1.20485 9.05134e-08 0)
(1.20485 8.62296e-07 0)
(1.20485 -9.41082e-08 0)
(1.20485 -8.60539e-07 0)
(1.20983 5.06769e-08 0)
(1.20983 9.17196e-07 0)
(1.20983 -5.40083e-08 0)
(1.20983 -9.15522e-07 0)
(1.21464 1.68971e-08 0)
(1.21464 9.5047e-07 0)
(1.21464 -1.99616e-08 0)
(1.21464 -9.48892e-07 0)
(1.21925 -1.08424e-08 0)
(1.21925 9.53293e-07 0)
(1.21925 8.05123e-09 0)
(1.21925 -9.51808e-07 0)
(1.22363 -4.7168e-08 0)
(1.22363 9.20748e-07 0)
(1.22364 4.46749e-08 0)
(1.22363 -9.19365e-07 0)
(1.22776 -9.40916e-08 0)
(1.22775 8.60372e-07 0)
(1.22776 9.18771e-08 0)
(1.22775 -8.59127e-07 0)
(1.23158 -1.35128e-07 0)
(1.23158 7.90224e-07 0)
(1.23159 1.33179e-07 0)
(1.23157 -7.89034e-07 0)
(1.23506 -1.59426e-07 0)
(1.23506 6.56945e-07 0)
(1.23507 1.57824e-07 0)
(1.23506 -6.56036e-07 0)
(1.23816 -1.2385e-07 0)
(1.23816 5.29797e-07 0)
(1.23817 1.22485e-07 0)
(1.23816 -5.28885e-07 0)
(1.24083 -6.1953e-08 0)
(1.24083 3.62698e-07 0)
(1.24083 6.08822e-08 0)
(1.24083 -3.61936e-07 0)
(1.24301 7.47619e-10 0)
(1.24301 2.17965e-07 0)
(1.24301 -1.47387e-09 0)
(1.24301 -2.17386e-07 0)
(1.24466 3.32584e-08 0)
(1.24466 1.08165e-07 0)
(1.24466 -3.36095e-08 0)
(1.24466 -1.0781e-07 0)
(1.24574 1.43502e-08 0)
(1.24573 3.89021e-08 0)
(1.24574 -1.44212e-08 0)
(1.24573 -3.87312e-08 0)
)
;

boundaryField
{
    inlet
    {
        type            cyclic;
    }
    outlet
    {
        type            cyclic;
    }
    fixedWalls-bottom
    {
        type            noSlip;
    }
    fixedWalls-top
    {
        type            symmetry;
    }
    frontAndBack
    {
        type            empty;
    }
}


// ************************************************************************* //
