/*--------------------------------*- C++ -*----------------------------------*\
  =========                 |
  \\      /  F ield         | OpenFOAM: The Open Source CFD Toolbox
   \\    /   O peration     | Website:  https://openfoam.org
    \\  /    A nd           | Version:  10
     \\/     M anipulation  |
\*---------------------------------------------------------------------------*/
FoamFile
{
    format      ascii;
    class       volScalarField;
    location    "166";
    object      k;
}
// * * * * * * * * * * * * * * * * * * * * * * * * * * * * * * * * * * * * * //

dimensions      [0 2 -2 0 0 0 0];

internalField   nonuniform List<scalar> 
200
(
2.22045e-16
2.22045e-16
2.22045e-16
2.22045e-16
2.22045e-16
2.22045e-16
2.22045e-16
2.22045e-16
7.63655e-16
7.64312e-16
7.63499e-16
7.63442e-16
2.72334e-15
2.7257e-15
2.72277e-15
2.72257e-15
6.96768e-15
6.97372e-15
6.96618e-15
6.96567e-15
1.46479e-14
1.46605e-14
1.46446e-14
1.46435e-14
2.71144e-14
2.71377e-14
2.71077e-14
2.7106e-14
4.59243e-14
4.59634e-14
4.59119e-14
4.59096e-14
7.28135e-14
7.28748e-14
7.27923e-14
7.27898e-14
1.09665e-13
1.09757e-13
1.09632e-13
1.09631e-13
1.58481e-13
1.58614e-13
1.58431e-13
1.58434e-13
2.2134e-13
2.21526e-13
2.21269e-13
2.21283e-13
3.00355e-13
3.00608e-13
3.00249e-13
3.00284e-13
3.9762e-13
3.97944e-13
3.97444e-13
3.97533e-13
5.15134e-13
5.1552e-13
5.14828e-13
5.15032e-13
6.54712e-13
6.5514e-13
6.54183e-13
6.54601e-13
8.17905e-13
8.18335e-13
8.1701e-13
8.17795e-13
1.0059e-12
1.00626e-12
1.00442e-12
1.00581e-12
1.2194e-12
1.21957e-12
1.21704e-12
1.21938e-12
1.45833e-12
1.45832e-12
1.4549e-12
1.45849e-12
1.7221e-12
1.72193e-12
1.71735e-12
1.7226e-12
2.00931e-12
2.00903e-12
2.00296e-12
2.01037e-12
2.31778e-12
2.31753e-12
2.30955e-12
2.31957e-12
2.64448e-12
2.64456e-12
2.63409e-12
2.6471e-12
2.98562e-12
2.98649e-12
2.97274e-12
2.98902e-12
3.33663e-12
3.339e-12
3.32092e-12
3.34062e-12
3.69227e-12
3.697e-12
3.67336e-12
3.69646e-12
4.04673e-12
4.05447e-12
4.02421e-12
4.05056e-12
4.39375e-12
4.40441e-12
4.36722e-12
4.39651e-12
4.72669e-12
4.73967e-12
4.69583e-12
4.72769e-12
5.03874e-12
5.05328e-12
5.00344e-12
5.03749e-12
5.32315e-12
5.33844e-12
5.28353e-12
5.31956e-12
5.57368e-12
5.58864e-12
5.52983e-12
5.56814e-12
5.78536e-12
5.79768e-12
5.73657e-12
5.77846e-12
5.95476e-12
5.95995e-12
5.89885e-12
5.94739e-12
6.08047e-12
6.07151e-12
6.01277e-12
6.07466e-12
6.16339e-12
6.13264e-12
6.07537e-12
6.16556e-12
6.21148e-12
6.13882e-12
6.08741e-12
6.18381e-12
6.18824e-12
6.09753e-12
6.04818e-12
6.14354e-12
6.10602e-12
6.00991e-12
5.96083e-12
6.05041e-12
5.97017e-12
5.8813e-12
5.83009e-12
5.90737e-12
5.77901e-12
5.71917e-12
5.66276e-12
5.71488e-12
5.60062e-12
5.51796e-12
5.46684e-12
5.49457e-12
5.37688e-12
5.29804e-12
5.25302e-12
5.27235e-12
5.12821e-12
5.06633e-12
5.03466e-12
5.05756e-12
4.84691e-12
4.83443e-12
4.82831e-12
4.84494e-12
4.60838e-12
4.61347e-12
4.65574e-12
4.67551e-12
4.41512e-12
4.42234e-12
4.47717e-12
4.50387e-12
4.27296e-12
4.27309e-12
4.34871e-12
4.34865e-12
4.18212e-12
4.1739e-12
4.25974e-12
4.25982e-12
)
;

boundaryField
{
    inlet
    {
        type            cyclic;
    }
    outlet
    {
        type            cyclic;
    }
    fixedWalls-bottom
    {
        type            kqRWallFunction;
        value           uniform 2.22045e-16;
    }
    fixedWalls-top
    {
        type            symmetry;
    }
    frontAndBack
    {
        type            empty;
    }
}


// ************************************************************************* //
