/*--------------------------------*- C++ -*----------------------------------*\
  =========                 |
  \\      /  F ield         | OpenFOAM: The Open Source CFD Toolbox
   \\    /   O peration     | Website:  https://openfoam.org
    \\  /    A nd           | Version:  10
     \\/     M anipulation  |
\*---------------------------------------------------------------------------*/
FoamFile
{
    format      ascii;
    class       volScalarField;
    location    "166";
    object      nut;
}
// * * * * * * * * * * * * * * * * * * * * * * * * * * * * * * * * * * * * * //

dimensions      [0 2 -1 0 0 0 0];

internalField   nonuniform List<scalar> 
200
(
6.63667e-21
6.63667e-21
6.63667e-21
6.63667e-21
4.08202e-20
4.08202e-20
4.08202e-20
4.08202e-20
4.3153e-19
4.31902e-19
4.31443e-19
4.3141e-19
3.35572e-18
3.35864e-18
3.35506e-18
3.3548e-18
1.54102e-17
1.54238e-17
1.54076e-17
1.54064e-17
5.13754e-17
5.14225e-17
5.13691e-17
5.1365e-17
1.39047e-16
1.39178e-16
1.39031e-16
1.39021e-16
3.26551e-16
3.26866e-16
3.2651e-16
3.26491e-16
6.91127e-16
6.91798e-16
6.9103e-16
6.91001e-16
1.34879e-15
1.35011e-15
1.3486e-15
1.34857e-15
2.46544e-15
2.46786e-15
2.46511e-15
2.46514e-15
4.26804e-15
4.27229e-15
4.26764e-15
4.26789e-15
7.05486e-15
7.06198e-15
7.0544e-15
7.05528e-15
1.12028e-14
1.12141e-14
1.12022e-14
1.12049e-14
1.71699e-14
1.71865e-14
1.71684e-14
1.71762e-14
2.54897e-14
2.55128e-14
2.5486e-14
2.55052e-14
3.67581e-14
3.67882e-14
3.67487e-14
3.67917e-14
5.16093e-14
5.16451e-14
5.15869e-14
5.16761e-14
7.06841e-14
7.07205e-14
7.06333e-14
7.08084e-14
9.4577e-14
9.46153e-14
9.44832e-14
9.47963e-14
1.23816e-13
1.23856e-13
1.23652e-13
1.24183e-13
1.58812e-13
1.58856e-13
1.58543e-13
1.59396e-13
1.99834e-13
1.99891e-13
1.99416e-13
2.00714e-13
2.46991e-13
2.47086e-13
2.46383e-13
2.48238e-13
3.00219e-13
3.00404e-13
2.99367e-13
3.01898e-13
3.59288e-13
3.59651e-13
3.58128e-13
3.61447e-13
4.23807e-13
4.24476e-13
4.22261e-13
4.26469e-13
4.93236e-13
4.94342e-13
4.91211e-13
4.964e-13
5.66889e-13
5.68513e-13
5.64283e-13
5.70543e-13
6.43928e-13
6.46103e-13
6.40673e-13
6.48086e-13
7.23328e-13
7.26094e-13
7.19556e-13
7.281e-13
8.04779e-13
8.07203e-13
8.00219e-13
8.09533e-13
8.8635e-13
8.88638e-13
8.81453e-13
8.91408e-13
9.67375e-13
9.69306e-13
9.61588e-13
9.72914e-13
1.04696e-12
1.04764e-12
1.03959e-12
1.05317e-12
1.12438e-12
1.1225e-12
1.1142e-12
1.13165e-12
1.19911e-12
1.1933e-12
1.18479e-12
1.2086e-12
1.27194e-12
1.25897e-12
1.2492e-12
1.27655e-12
1.33474e-12
1.31715e-12
1.30753e-12
1.33654e-12
1.38792e-12
1.36732e-12
1.35845e-12
1.38832e-12
1.42981e-12
1.41323e-12
1.39925e-12
1.43077e-12
1.46077e-12
1.44937e-12
1.43428e-12
1.46052e-12
1.49573e-12
1.47334e-12
1.46309e-12
1.48082e-12
1.51337e-12
1.49463e-12
1.48231e-12
1.49794e-12
1.51925e-12
1.50558e-12
1.49603e-12
1.51313e-12
1.50751e-12
1.50912e-12
1.50685e-12
1.52257e-12
1.49832e-12
1.50608e-12
1.51948e-12
1.53689e-12
1.49106e-12
1.49999e-12
1.51873e-12
1.53894e-12
1.48586e-12
1.49317e-12
1.52041e-12
1.53163e-12
1.48019e-12
1.48684e-12
1.51898e-12
1.53018e-12
)
;

boundaryField
{
    inlet
    {
        type            cyclic;
    }
    outlet
    {
        type            cyclic;
    }
    fixedWalls-bottom
    {
        type            nutkWallFunction;
        Cmu             0.09;
        kappa           0.41;
        E               9.8;
        value           uniform 0;
    }
    fixedWalls-top
    {
        type            symmetry;
    }
    frontAndBack
    {
        type            empty;
    }
}


// ************************************************************************* //
