/*--------------------------------*- C++ -*----------------------------------*\
  =========                 |
  \\      /  F ield         | OpenFOAM: The Open Source CFD Toolbox
   \\    /   O peration     | Website:  https://openfoam.org
    \\  /    A nd           | Version:  10
     \\/     M anipulation  |
\*---------------------------------------------------------------------------*/
FoamFile
{
    format      ascii;
    class       volScalarField;
    location    "166";
    object      omega;
}
// * * * * * * * * * * * * * * * * * * * * * * * * * * * * * * * * * * * * * //

dimensions      [0 0 -1 0 0 0 0];

internalField   nonuniform List<scalar> 
200
(
33457.3
33457.3
33457.3
33457.3
5439.57
5439.58
5439.57
5439.57
1769.64
1769.64
1769.64
1769.64
811.552
811.549
811.543
811.545
452.149
452.139
452.126
452.129
285.115
285.099
285.085
285.088
195.003
194.985
194.975
194.977
140.635
140.618
140.614
140.615
105.355
105.341
105.339
105.34
81.3063
81.2952
81.2932
81.2938
64.281
64.2718
64.2693
64.2697
51.8598
51.8518
51.8482
51.8483
42.5742
42.567
42.5619
42.5615
35.4928
35.4861
35.4792
35.4783
30.0021
29.9956
29.9869
29.9852
25.6853
25.6789
25.6684
25.6654
22.251
22.2445
22.2323
22.2277
19.4906
19.484
19.4705
19.4637
17.2514
17.2449
17.2305
17.2209
15.4195
15.4132
15.3985
15.3855
13.9086
13.9026
13.8885
13.8715
12.6522
12.6469
12.6336
12.6124
11.5985
11.594
11.5816
11.5566
10.7068
10.703
10.691
10.6636
9.9448
9.94158
9.93008
9.90077
9.28677
9.28399
9.27301
9.24235
8.71214
8.70957
8.69926
8.66759
8.20446
8.20175
8.19243
8.15986
7.75063
7.74725
7.73941
7.70583
7.3404
7.33578
7.32954
7.29486
6.96606
6.95954
6.9535
6.91868
6.61442
6.61351
6.6026
6.57115
6.28835
6.289
6.27355
6.24646
5.98047
5.98126
5.96573
5.93934
5.68766
5.68895
5.67422
5.64715
5.40786
5.40892
5.39648
5.36797
5.13996
5.13922
5.1278
5.1014
4.88347
4.87608
4.87303
4.84417
4.6363
4.62933
4.62566
4.5966
4.3994
4.39538
4.38796
4.35808
4.17551
4.16161
4.1666
4.1288
3.95614
3.94597
3.94815
3.9129
3.74442
3.74521
3.73649
3.71048
3.55291
3.54472
3.5438
3.51974
3.37548
3.36504
3.36534
3.34245
3.21517
3.20347
3.20425
3.18209
3.07569
3.06323
3.06403
3.04219
2.96106
2.94824
2.94798
2.92659
2.87575
2.86176
2.86022
2.83923
2.82539
2.80724
2.80434
2.78386
)
;

boundaryField
{
    inlet
    {
        type            cyclic;
    }
    outlet
    {
        type            cyclic;
    }
    fixedWalls-bottom
    {
        beta1           0.075;
        blended         0;
        type            omegaWallFunction;
        value           nonuniform List<scalar> 4(33457.3 33457.3 33457.3 33457.3);
    }
    fixedWalls-top
    {
        type            symmetry;
    }
    frontAndBack
    {
        type            empty;
    }
}


// ************************************************************************* //
