/*--------------------------------*- C++ -*----------------------------------*\
  =========                 |
  \\      /  F ield         | OpenFOAM: The Open Source CFD Toolbox
   \\    /   O peration     | Website:  https://openfoam.org
    \\  /    A nd           | Version:  10
     \\/     M anipulation  |
\*---------------------------------------------------------------------------*/
FoamFile
{
    format      ascii;
    class       volScalarField;
    location    "166";
    object      p;
}
// * * * * * * * * * * * * * * * * * * * * * * * * * * * * * * * * * * * * * //

dimensions      [0 2 -2 0 0 0 0];

internalField   nonuniform List<scalar> 
200
(
-2.73233e-10
6.09079e-07
-1.16085e-07
-7.27834e-07
-1.88722e-10
6.0791e-07
-1.15734e-07
-7.26628e-07
-5.76063e-10
6.06588e-07
-1.15429e-07
-7.25289e-07
-1.16206e-09
6.05675e-07
-1.15074e-07
-7.24343e-07
-1.67298e-09
6.04969e-07
-1.14784e-07
-7.23607e-07
-2.17759e-09
6.04632e-07
-1.14428e-07
-7.23216e-07
-2.55636e-09
6.04432e-07
-1.14175e-07
-7.22972e-07
-2.9358e-09
6.04592e-07
-1.13888e-07
-7.23066e-07
-3.17176e-09
6.04865e-07
-1.13744e-07
-7.23287e-07
-3.38983e-09
6.05463e-07
-1.13603e-07
-7.23814e-07
-3.43056e-09
6.06114e-07
-1.13647e-07
-7.24412e-07
-3.4094e-09
6.07006e-07
-1.13742e-07
-7.25235e-07
-3.16541e-09
6.07849e-07
-1.14067e-07
-7.26026e-07
-2.80474e-09
6.08779e-07
-1.14497e-07
-7.26889e-07
-2.17375e-09
6.0949e-07
-1.15203e-07
-7.27551e-07
-1.37103e-09
6.1006e-07
-1.16069e-07
-7.28059e-07
-2.54631e-10
6.1016e-07
-1.17252e-07
-7.28117e-07
1.08466e-09
6.09785e-07
-1.18647e-07
-7.27685e-07
2.77348e-09
6.08589e-07
-1.20394e-07
-7.26452e-07
4.72466e-09
6.0648e-07
-1.22393e-07
-7.24295e-07
7.05016e-09
6.03084e-07
-1.24765e-07
-7.20871e-07
9.66668e-09
5.98209e-07
-1.27421e-07
-7.15956e-07
1.26709e-08
5.91458e-07
-1.30459e-07
-7.09187e-07
1.59808e-08
5.8255e-07
-1.33799e-07
-7.00248e-07
1.96814e-08
5.71065e-07
-1.37522e-07
-6.88754e-07
2.36991e-08
5.56629e-07
-1.41559e-07
-6.743e-07
2.81071e-08
5.38821e-07
-1.45977e-07
-6.56493e-07
3.28414e-08
5.17211e-07
-1.50721e-07
-6.34874e-07
3.79697e-08
4.9139e-07
-1.55854e-07
-6.0906e-07
4.34498e-08
4.60905e-07
-1.61332e-07
-5.7858e-07
4.93431e-08
4.25405e-07
-1.67226e-07
-5.43094e-07
5.56304e-08
3.84473e-07
-1.73504e-07
-5.0218e-07
6.23735e-08
3.3787e-07
-1.80253e-07
-4.5559e-07
6.95822e-08
2.85287e-07
-1.87447e-07
-4.03037e-07
7.73153e-08
2.26669e-07
-1.95195e-07
-3.44433e-07
8.56062e-08
1.61905e-07
-2.03472e-07
-2.79711e-07
9.45082e-08
9.12058e-08
-2.12403e-07
-2.09025e-07
1.04067e-07
1.47765e-08
-2.21956e-07
-1.32647e-07
1.14318e-07
-6.68213e-08
-2.32254e-07
-5.10629e-08
1.25293e-07
-1.52951e-07
-2.43237e-07
3.50056e-08
1.36993e-07
-2.42597e-07
-2.54999e-07
1.24627e-07
1.49388e-07
-3.34552e-07
-2.67428e-07
2.16515e-07
1.62388e-07
-4.27225e-07
-2.80513e-07
3.0915e-07
1.75818e-07
-5.18737e-07
-2.94009e-07
4.00584e-07
1.8943e-07
-6.06861e-07
-3.07728e-07
4.88643e-07
2.02964e-07
-6.8903e-07
-3.21369e-07
5.70722e-07
2.16113e-07
-7.61952e-07
-3.34645e-07
6.43558e-07
2.27998e-07
-8.21006e-07
-3.46654e-07
7.02534e-07
2.367e-07
-8.61521e-07
-3.55465e-07
7.43005e-07
2.41932e-07
-8.8593e-07
-3.60792e-07
7.67403e-07
)
;

boundaryField
{
    inlet
    {
        type            cyclic;
    }
    outlet
    {
        type            cyclic;
    }
    fixedWalls-bottom
    {
        type            zeroGradient;
    }
    fixedWalls-top
    {
        type            symmetry;
    }
    frontAndBack
    {
        type            empty;
    }
}


// ************************************************************************* //
