/*--------------------------------*- C++ -*----------------------------------*\
  =========                 |
  \\      /  F ield         | OpenFOAM: The Open Source CFD Toolbox
   \\    /   O peration     | Website:  https://openfoam.org
    \\  /    A nd           | Version:  10
     \\/     M anipulation  |
\*---------------------------------------------------------------------------*/
FoamFile
{
    format      ascii;
    class       surfaceScalarField;
    location    "166";
    object      phi;
}
// * * * * * * * * * * * * * * * * * * * * * * * * * * * * * * * * * * * * * //

dimensions      [0 3 -1 0 0 0 0];

internalField   nonuniform List<scalar> 
346
(
0.000255125
5.70336e-10
0.000255126
-9.85435e-10
0.000255126
1.0886e-10
9.66383e-10
0.00078997
2.97839e-11
0.000789972
-3.61597e-09
0.000789972
4.80611e-10
3.56778e-09
0.00136553
-8.00442e-10
0.00136554
-7.56879e-09
0.00136554
1.25093e-09
7.50373e-09
0.00198398
-2.0298e-09
0.00198398
-1.27357e-08
0.00198398
2.39948e-09
1.2651e-08
0.00264754
-3.69196e-09
0.00264755
-1.88447e-08
0.00264755
4.01773e-09
1.87525e-08
0.00335854
-5.80187e-09
0.00335855
-2.57508e-08
0.00335855
6.0925e-09
2.56492e-08
0.00411938
-8.50447e-09
0.00411939
-3.31144e-08
0.00411938
8.76026e-09
3.30119e-08
0.00493251
-1.17965e-08
0.00493252
-4.07483e-08
0.00493252
1.20362e-08
4.06465e-08
0.00580049
-1.58928e-08
0.00580049
-4.82694e-08
0.00580049
1.61061e-08
4.81683e-08
0.00672591
-2.08147e-08
0.00672592
-5.54698e-08
0.00672591
2.10169e-08
5.53786e-08
0.00771145
-2.6824e-08
0.00771146
-6.19533e-08
0.00771145
2.70042e-08
6.18641e-08
0.00875985
-3.39806e-08
0.00875986
-6.75206e-08
0.00875985
3.41472e-08
6.74503e-08
0.0098739
-4.25714e-08
0.00987391
-7.18004e-08
0.0098739
4.27227e-08
7.17289e-08
0.0110564
-5.26982e-08
0.0110564
-7.46355e-08
0.0110564
5.28301e-08
7.45914e-08
0.0123103
-6.4648e-08
0.0123103
-7.57176e-08
0.0123103
6.4769e-08
7.567e-08
0.0136385
-7.85419e-08
0.0136385
-7.49655e-08
0.0136385
7.86354e-08
7.4954e-08
0.0150438
-9.4631e-08
0.0150438
-7.21661e-08
0.0150438
9.47213e-08
7.21449e-08
0.0165293
-1.13032e-07
0.0165293
-6.73391e-08
0.0165293
1.13087e-07
6.73619e-08
0.0180978
-1.3392e-07
0.0180978
-6.03859e-08
0.0180978
1.33978e-07
6.03936e-08
0.0197522
-1.57365e-07
0.0197522
-5.14401e-08
0.0197522
1.57381e-07
5.14993e-08
0.0214954
-1.83425e-07
0.0214954
-4.05196e-08
0.0214954
1.83451e-07
4.05559e-08
0.0233301
-2.12088e-07
0.0233301
-2.78718e-08
0.0233301
2.12066e-07
2.79652e-08
0.025259
-2.43261e-07
0.025259
-1.36164e-08
0.025259
2.43256e-07
1.36799e-08
0.0272847
-2.76816e-07
0.0272847
1.90267e-09
0.0272847
2.7676e-07
-1.77776e-09
0.0294095
-3.12494e-07
0.0294095
1.84927e-08
0.0294094
3.12462e-07
-1.84063e-08
0.0316355
-3.50025e-07
0.0316355
3.57334e-08
0.0316355
3.49941e-07
-3.55831e-08
0.0339648
-3.88985e-07
0.0339648
5.33942e-08
0.0339648
3.88932e-07
-5.32909e-08
0.036399
-4.28956e-07
0.036399
7.10072e-08
0.0363989
4.28852e-07
-7.08386e-08
0.0389393
-4.6936e-07
0.0389393
8.83426e-08
0.0389392
4.69297e-07
-8.82335e-08
0.0415866
-5.09636e-07
0.0415866
1.04905e-07
0.0415866
5.09523e-07
-1.04731e-07
0.0443414
-5.49078e-07
0.0443414
1.20503e-07
0.0443414
5.49012e-07
-1.20397e-07
0.0472035
-5.86995e-07
0.0472035
1.34636e-07
0.0472034
5.86879e-07
-1.34465e-07
0.0501721
-6.22575e-07
0.0501721
1.47175e-07
0.050172
6.2252e-07
-1.47085e-07
0.0532456
-6.55033e-07
0.0532456
1.5766e-07
0.0532456
6.54926e-07
-1.57503e-07
0.0564218
-6.83482e-07
0.0564218
1.66039e-07
0.0564218
6.83439e-07
-1.65968e-07
0.0596974
-7.07072e-07
0.0596974
1.71928e-07
0.0596973
7.06963e-07
-1.7178e-07
0.0630678
-7.24848e-07
0.0630678
1.75354e-07
0.0630678
7.24824e-07
-1.75306e-07
0.0665275
-7.35969e-07
0.0665275
1.76069e-07
0.0665275
7.35857e-07
-1.75925e-07
0.0700695
-7.39394e-07
0.0700695
1.74163e-07
0.0700695
7.39407e-07
-1.74157e-07
0.0736852
-7.34328e-07
0.0736852
1.69551e-07
0.0736852
7.3423e-07
-1.69429e-07
0.0773642
-7.19614e-07
0.0773642
1.62358e-07
0.0773642
7.19665e-07
-1.62393e-07
0.0810942
-6.94449e-07
0.0810942
1.52648e-07
0.0810942
6.94384e-07
-1.52565e-07
0.0848606
-6.57538e-07
0.0848606
1.40548e-07
0.0848607
6.57629e-07
-1.40627e-07
0.0886464
-6.07969e-07
0.0886464
1.26186e-07
0.0886465
6.07979e-07
-1.26184e-07
0.0924318
-5.44424e-07
0.0924318
1.09642e-07
0.0924319
5.4451e-07
-1.0972e-07
0.0961938
-4.65963e-07
0.0961938
9.09797e-08
0.0961939
4.66007e-07
-9.10179e-08
0.0999061
-3.7175e-07
0.0999061
7.02569e-08
0.0999062
3.71785e-07
-7.02888e-08
0.103538
-2.61825e-07
0.103538
4.79566e-08
0.103538
2.61813e-07
-4.79437e-08
0.107056
-1.36228e-07
0.107056
2.12907e-08
0.107056
1.36223e-07
-2.12853e-08
0.11042
0.11042
0.11042
)
;

boundaryField
{
    inlet
    {
        type            cyclic;
        value           nonuniform List<scalar> 
50
(
-0.11042
-0.107056
-0.103538
-0.0999062
-0.0961939
-0.0924319
-0.0886465
-0.0848607
-0.0810942
-0.0773642
-0.0736852
-0.0700695
-0.0665275
-0.0630678
-0.0596973
-0.0564218
-0.0532456
-0.050172
-0.0472035
-0.0443414
-0.0415866
-0.0389393
-0.036399
-0.0339648
-0.0316355
-0.0294094
-0.0272847
-0.025259
-0.0233301
-0.0214954
-0.0197522
-0.0180978
-0.0165293
-0.0150438
-0.0136385
-0.0123103
-0.0110564
-0.00987389
-0.00875985
-0.00771145
-0.0067259
-0.00580048
-0.00493251
-0.00411938
-0.00335854
-0.00264754
-0.00198398
-0.00136553
-0.000789969
-0.000255125
)
;
    }
    outlet
    {
        type            cyclic;
        value           nonuniform List<scalar> 
50
(
0.11042
0.107056
0.103538
0.0999062
0.0961939
0.0924319
0.0886465
0.0848607
0.0810942
0.0773642
0.0736852
0.0700695
0.0665275
0.0630678
0.0596973
0.0564218
0.0532456
0.050172
0.0472035
0.0443414
0.0415866
0.0389393
0.036399
0.0339648
0.0316355
0.0294094
0.0272847
0.025259
0.0233301
0.0214954
0.0197522
0.0180978
0.0165293
0.0150438
0.0136385
0.0123103
0.0110564
0.00987389
0.00875985
0.00771145
0.0067259
0.00580048
0.00493251
0.00411938
0.00335854
0.00264754
0.00198398
0.00136553
0.000789969
0.000255125
)
;
    }
    fixedWalls-bottom
    {
        type            calculated;
        value           uniform 0;
    }
    fixedWalls-top
    {
        type            symmetry;
        value           uniform 0;
    }
    frontAndBack
    {
        type            empty;
        value           nonuniform List<scalar> 0();
    }
}


// ************************************************************************* //
