/*--------------------------------*- C++ -*----------------------------------*\
  =========                 |
  \\      /  F ield         | OpenFOAM: The Open Source CFD Toolbox
   \\    /   O peration     | Website:  https://openfoam.org
    \\  /    A nd           | Version:  10
     \\/     M anipulation  |
\*---------------------------------------------------------------------------*/
FoamFile
{
    format      ascii;
    class       volSymmTensorField;
    location    "166";
    object      R;
}
// * * * * * * * * * * * * * * * * * * * * * * * * * * * * * * * * * * * * * //

dimensions      [0 2 -2 0 0 0 0];

internalField   nonuniform List<symmTensor> 
200
(
(1.4803e-16 -1.98573e-20 -0 1.4803e-16 -0 1.4803e-16)
(1.4803e-16 -1.98574e-20 -0 1.4803e-16 -0 1.4803e-16)
(1.4803e-16 -1.98574e-20 -0 1.4803e-16 -0 1.4803e-16)
(1.4803e-16 -1.98573e-20 -0 1.4803e-16 -0 1.4803e-16)
(1.4803e-16 -1.20991e-19 -0 1.4803e-16 -0 1.4803e-16)
(1.4803e-16 -1.20991e-19 -0 1.4803e-16 -0 1.4803e-16)
(1.4803e-16 -1.20991e-19 -0 1.4803e-16 -0 1.4803e-16)
(1.4803e-16 -1.20991e-19 -0 1.4803e-16 -0 1.4803e-16)
(5.09103e-16 -1.26657e-18 -0 5.09103e-16 -0 5.09103e-16)
(5.09541e-16 -1.26766e-18 -0 5.09541e-16 -0 5.09541e-16)
(5.08999e-16 -1.26632e-18 -0 5.08999e-16 -0 5.08999e-16)
(5.08961e-16 -1.26622e-18 -0 5.08961e-16 -0 5.08961e-16)
(1.81556e-15 -9.74931e-18 -0 1.81556e-15 -0 1.81556e-15)
(1.81714e-15 -9.7578e-18 -0 1.81714e-15 -0 1.81714e-15)
(1.81518e-15 -9.74741e-18 -0 1.81518e-15 -0 1.81518e-15)
(1.81504e-15 -9.74661e-18 -0 1.81504e-15 -0 1.81504e-15)
(4.64512e-15 -4.42978e-17 -0 4.64512e-15 -0 4.64512e-15)
(4.64915e-15 -4.43371e-17 -0 4.64915e-15 -0 4.64915e-15)
(4.64412e-15 -4.42906e-17 -0 4.64412e-15 -0 4.64412e-15)
(4.64378e-15 -4.42868e-17 -0 4.64378e-15 -0 4.64378e-15)
(9.76526e-15 -1.46059e-16 -0 9.76526e-15 -0 9.76526e-15)
(9.77369e-15 -1.46193e-16 -0 9.77369e-15 -0 9.77369e-15)
(9.76303e-15 -1.46041e-16 -0 9.76303e-15 -0 9.76303e-15)
(9.76235e-15 -1.46029e-16 -0 9.76235e-15 -0 9.76235e-15)
(1.80763e-14 -3.90779e-16 -0 1.80763e-14 -0 1.80763e-14)
(1.80918e-14 -3.91149e-16 -0 1.80918e-14 -0 1.80918e-14)
(1.80718e-14 -3.90737e-16 -0 1.80718e-14 -0 1.80718e-14)
(1.80707e-14 -3.90708e-16 -0 1.80707e-14 -0 1.80707e-14)
(3.06162e-14 -9.06803e-16 -0 3.06162e-14 -0 3.06162e-14)
(3.06422e-14 -9.07675e-16 -0 3.06422e-14 -0 3.06422e-14)
(3.06079e-14 -9.06689e-16 -0 3.06079e-14 -0 3.06079e-14)
(3.06064e-14 -9.06633e-16 -0 3.06064e-14 -0 3.06064e-14)
(4.85423e-14 -1.89535e-15 -0 4.85423e-14 -0 4.85423e-14)
(4.85832e-14 -1.89719e-15 -0 4.85832e-14 -0 4.85832e-14)
(4.85282e-14 -1.89509e-15 -0 4.85282e-14 -0 4.85282e-14)
(4.85266e-14 -1.895e-15 -0 4.85266e-14 -0 4.85266e-14)
(7.31102e-14 -3.65105e-15 -0 7.31102e-14 -0 7.31102e-14)
(7.31715e-14 -3.6546e-15 -0 7.31715e-14 -0 7.31715e-14)
(7.30878e-14 -3.65051e-15 -0 7.30878e-14 -0 7.30878e-14)
(7.30871e-14 -3.65044e-15 -0 7.3087e-14 -0 7.30871e-14)
(1.05654e-13 -6.5836e-15 -0 1.05654e-13 -0 1.05654e-13)
(1.05742e-13 -6.59005e-15 -0 1.05742e-13 -0 1.05742e-13)
(1.05621e-13 -6.58271e-15 -0 1.05621e-13 -0 1.05621e-13)
(1.05623e-13 -6.58279e-15 -0 1.05623e-13 -0 1.05623e-13)
(1.4756e-13 -1.12367e-14 -0 1.4756e-13 -0 1.4756e-13)
(1.47684e-13 -1.12479e-14 -0 1.47684e-13 -0 1.47684e-13)
(1.47513e-13 -1.12356e-14 -0 1.47513e-13 -0 1.47513e-13)
(1.47522e-13 -1.12363e-14 -0 1.47522e-13 -0 1.47522e-13)
(2.00237e-13 -1.83008e-14 -0 2.00237e-13 -0 2.00237e-13)
(2.00405e-13 -1.83192e-14 -0 2.00405e-13 -0 2.00405e-13)
(2.00166e-13 -1.82995e-14 -0 2.00166e-13 -0 2.00166e-13)
(2.00189e-13 -1.83018e-14 -0 2.00189e-13 -0 2.00189e-13)
(2.6508e-13 -2.8615e-14 -0 2.6508e-13 -0 2.6508e-13)
(2.65296e-13 -2.86437e-14 -0 2.65296e-13 -0 2.65296e-13)
(2.64963e-13 -2.86132e-14 -0 2.64963e-13 -0 2.64963e-13)
(2.65022e-13 -2.86202e-14 -0 2.65022e-13 -0 2.65022e-13)
(3.43422e-13 -4.31534e-14 -0 3.43422e-13 -0 3.43422e-13)
(3.4368e-13 -4.31951e-14 -0 3.4368e-13 -0 3.4368e-13)
(3.43219e-13 -4.31495e-14 -0 3.43219e-13 -0 3.43219e-13)
(3.43355e-13 -4.31691e-14 -0 3.43355e-13 -0 3.43355e-13)
(4.36475e-13 -6.29902e-14 -0 4.36475e-13 -0 4.36475e-13)
(4.3676e-13 -6.30472e-14 -0 4.3676e-13 -0 4.3676e-13)
(4.36122e-13 -6.29807e-14 -0 4.36122e-13 -0 4.36122e-13)
(4.36401e-13 -6.30281e-14 -0 4.36401e-13 -0 4.36401e-13)
(5.4527e-13 -8.92443e-14 -0 5.4527e-13 -0 5.4527e-13)
(5.45557e-13 -8.93173e-14 -0 5.45556e-13 -0 5.45556e-13)
(5.44673e-13 -8.92212e-14 -0 5.44673e-13 -0 5.44673e-13)
(5.45197e-13 -8.93254e-14 -0 5.45197e-13 -0 5.45197e-13)
(6.70598e-13 -1.23002e-13 -0 6.70598e-13 -0 6.70598e-13)
(6.70837e-13 -1.23088e-13 -0 6.70837e-13 -0 6.70837e-13)
(6.69615e-13 -1.22948e-13 -0 6.69615e-13 -0 6.69615e-13)
(6.7054e-13 -1.23161e-13 -0 6.7054e-13 -0 6.7054e-13)
(8.12932e-13 -1.65226e-13 -0 8.12933e-13 -0 8.12933e-13)
(8.13044e-13 -1.65311e-13 -0 8.13044e-13 -0 8.13044e-13)
(8.11363e-13 -1.65106e-13 -0 8.11363e-13 -0 8.11363e-13)
(8.12922e-13 -1.65516e-13 -0 8.12923e-13 -0 8.12923e-13)
(9.7222e-13 -2.16621e-13 -0 9.7222e-13 -0 9.7222e-13)
(9.72214e-13 -2.16708e-13 -0 9.72214e-13 -0 9.72214e-13)
(9.69936e-13 -2.16405e-13 -0 9.69936e-13 -0 9.69936e-13)
(9.72328e-13 -2.17122e-13 -0 9.72329e-13 -0 9.72328e-13)
(1.14807e-12 -2.77592e-13 -0 1.14807e-12 -0 1.14807e-12)
(1.14795e-12 -2.77683e-13 -0 1.14795e-12 -0 1.14795e-12)
(1.1449e-12 -2.77225e-13 -0 1.1449e-12 -0 1.1449e-12)
(1.1484e-12 -2.78414e-13 -0 1.1484e-12 -0 1.1484e-12)
(1.33954e-12 -3.48143e-13 -0 1.33954e-12 -0 1.33954e-12)
(1.33936e-12 -3.4824e-13 -0 1.33936e-12 -0 1.33936e-12)
(1.33531e-12 -3.47552e-13 -0 1.33531e-12 -0 1.33531e-12)
(1.34024e-12 -3.49424e-13 -0 1.34024e-12 -0 1.34024e-12)
(1.54518e-12 -4.27839e-13 -0 1.54519e-12 -0 1.54519e-12)
(1.54502e-12 -4.27962e-13 -0 1.54502e-12 -0 1.54502e-12)
(1.5397e-12 -4.26944e-13 -0 1.5397e-12 -0 1.5397e-12)
(1.54638e-12 -4.29721e-13 -0 1.54638e-12 -0 1.54638e-12)
(1.76299e-12 -5.15798e-13 -0 1.76299e-12 -0 1.76299e-12)
(1.76304e-12 -5.15997e-13 -0 1.76304e-12 -0 1.76304e-12)
(1.75606e-12 -5.14527e-13 -0 1.75606e-12 -0 1.75606e-12)
(1.76473e-12 -5.184e-13 -0 1.76473e-12 -0 1.76473e-12)
(1.99041e-12 -6.10706e-13 -0 1.99042e-12 -0 1.99042e-12)
(1.991e-12 -6.11083e-13 -0 1.991e-12 -0 1.991e-12)
(1.98183e-12 -6.08973e-13 -0 1.98183e-12 -0 1.98183e-12)
(1.99268e-12 -6.14121e-13 -0 1.99268e-12 -0 1.99268e-12)
(2.22442e-12 -7.10872e-13 -0 2.22442e-12 -0 2.22442e-12)
(2.226e-12 -7.11592e-13 -0 2.226e-12 -0 2.226e-12)
(2.21395e-12 -7.08576e-13 -0 2.21395e-12 -0 2.21395e-12)
(2.22708e-12 -7.15142e-13 -0 2.22708e-12 -0 2.22708e-12)
(2.46151e-12 -8.14283e-13 -0 2.46152e-12 -0 2.46151e-12)
(2.46467e-12 -8.15568e-13 -0 2.46467e-12 -0 2.46467e-12)
(2.44891e-12 -8.11312e-13 -0 2.44891e-12 -0 2.44891e-12)
(2.4643e-12 -8.19397e-13 -0 2.46431e-12 -0 2.4643e-12)
(2.69782e-12 -9.18672e-13 -0 2.69782e-12 -0 2.69782e-12)
(2.70298e-12 -9.20734e-13 -0 2.70298e-12 -0 2.70298e-12)
(2.68281e-12 -9.14902e-13 -0 2.68281e-12 -0 2.68281e-12)
(2.70037e-12 -9.24567e-13 -0 2.70037e-12 -0 2.70037e-12)
(2.92916e-12 -1.02158e-12 -0 2.92917e-12 -0 2.92917e-12)
(2.93627e-12 -1.02451e-12 -0 2.93627e-12 -0 2.93627e-12)
(2.91148e-12 -1.01689e-12 -0 2.91148e-12 -0 2.91148e-12)
(2.931e-12 -1.02817e-12 -0 2.93101e-12 -0 2.93101e-12)
(3.15113e-12 -1.12039e-12 -0 3.15113e-12 -0 3.15113e-12)
(3.15978e-12 -1.12417e-12 -0 3.15978e-12 -0 3.15978e-12)
(3.13056e-12 -1.11472e-12 -0 3.13055e-12 -0 3.13056e-12)
(3.15179e-12 -1.12762e-12 -0 3.1518e-12 -0 3.15179e-12)
(3.35916e-12 -1.21232e-12 -0 3.35917e-12 -0 3.35916e-12)
(3.36885e-12 -1.21696e-12 -0 3.36885e-12 -0 3.36885e-12)
(3.33563e-12 -1.206e-12 -0 3.33562e-12 -0 3.33563e-12)
(3.35833e-12 -1.22032e-12 -0 3.35833e-12 -0 3.35833e-12)
(3.54877e-12 -1.29596e-12 -0 3.54877e-12 -0 3.54877e-12)
(3.55896e-12 -1.29987e-12 -0 3.55896e-12 -0 3.55896e-12)
(3.52235e-12 -1.28862e-12 -0 3.52235e-12 -0 3.52235e-12)
(3.54637e-12 -1.30363e-12 -0 3.54638e-12 -0 3.54637e-12)
(3.71579e-12 -1.36746e-12 -0 3.71579e-12 -0 3.71579e-12)
(3.72576e-12 -1.37099e-12 -0 3.72576e-12 -0 3.72576e-12)
(3.68656e-12 -1.35991e-12 -0 3.68655e-12 -0 3.68656e-12)
(3.71209e-12 -1.37527e-12 -0 3.71209e-12 -0 3.71209e-12)
(3.8569e-12 -1.4253e-12 -0 3.85691e-12 -0 3.85691e-12)
(3.86512e-12 -1.42815e-12 -0 3.86512e-12 -0 3.86512e-12)
(3.82439e-12 -1.41677e-12 -0 3.82438e-12 -0 3.82438e-12)
(3.85231e-12 -1.43347e-12 -0 3.85231e-12 -0 3.85231e-12)
(3.96984e-12 -1.46782e-12 -0 3.96984e-12 -0 3.96984e-12)
(3.9733e-12 -1.46876e-12 -0 3.9733e-12 -0 3.9733e-12)
(3.93257e-12 -1.45748e-12 -0 3.93256e-12 -0 3.93256e-12)
(3.96492e-12 -1.47653e-12 -0 3.96493e-12 -0 3.96492e-12)
(4.05364e-12 -1.49383e-12 -0 4.05365e-12 -0 4.05365e-12)
(4.04767e-12 -1.49134e-12 -0 4.04767e-12 -0 4.04767e-12)
(4.00851e-12 -1.48031e-12 -0 4.00851e-12 -0 4.00851e-12)
(4.04978e-12 -1.5035e-12 -0 4.04978e-12 -0 4.04978e-12)
(4.10892e-12 -1.50263e-12 -0 4.10893e-12 -0 4.10892e-12)
(4.08843e-12 -1.49535e-12 -0 4.08843e-12 -0 4.08843e-12)
(4.05025e-12 -1.48469e-12 -0 4.05024e-12 -0 4.05024e-12)
(4.11038e-12 -1.51454e-12 -0 4.11038e-12 -0 4.11038e-12)
(4.14099e-12 -1.4952e-12 -0 4.14099e-12 -0 4.14099e-12)
(4.09255e-12 -1.47996e-12 -0 4.09255e-12 -0 4.09255e-12)
(4.05828e-12 -1.46848e-12 -0 4.05827e-12 -0 4.05827e-12)
(4.12254e-12 -1.50064e-12 -0 4.12254e-12 -0 4.12254e-12)
(4.12549e-12 -1.46254e-12 -0 4.12549e-12 -0 4.12549e-12)
(4.06502e-12 -1.44328e-12 -0 4.06502e-12 -0 4.06502e-12)
(4.03212e-12 -1.43273e-12 -0 4.03212e-12 -0 4.03212e-12)
(4.09569e-12 -1.46453e-12 -0 4.09569e-12 -0 4.09569e-12)
(4.07068e-12 -1.40696e-12 -0 4.07068e-12 -0 4.07068e-12)
(4.0066e-12 -1.38609e-12 -0 4.00661e-12 -0 4.00661e-12)
(3.97389e-12 -1.3771e-12 -0 3.97389e-12 -0 3.97389e-12)
(4.03361e-12 -1.40738e-12 -0 4.03361e-12 -0 4.03361e-12)
(3.98012e-12 -1.32882e-12 -0 3.98011e-12 -0 3.98011e-12)
(3.92087e-12 -1.31341e-12 -0 3.92087e-12 -0 3.92087e-12)
(3.88673e-12 -1.30042e-12 -0 3.88673e-12 -0 3.88673e-12)
(3.93824e-12 -1.32973e-12 -0 3.93824e-12 -0 3.93824e-12)
(3.85267e-12 -1.23089e-12 -0 3.85267e-12 -0 3.85267e-12)
(3.81278e-12 -1.22129e-12 -0 3.81278e-12 -0 3.81278e-12)
(3.77517e-12 -1.20858e-12 -0 3.77518e-12 -0 3.77517e-12)
(3.80992e-12 -1.2307e-12 -0 3.80992e-12 -0 3.80992e-12)
(3.73375e-12 -1.12693e-12 -0 3.73375e-12 -0 3.73375e-12)
(3.67864e-12 -1.11007e-12 -0 3.67864e-12 -0 3.67864e-12)
(3.64455e-12 -1.10235e-12 -0 3.64456e-12 -0 3.64456e-12)
(3.66305e-12 -1.11572e-12 -0 3.66304e-12 -0 3.66305e-12)
(3.58459e-12 -1.00142e-12 -0 3.58458e-12 -0 3.58458e-12)
(3.53202e-12 -9.89015e-13 -0 3.53202e-12 -0 3.53202e-12)
(3.50201e-12 -9.80868e-13 -0 3.50202e-12 -0 3.50201e-12)
(3.5149e-12 -9.91221e-13 -0 3.5149e-12 -0 3.5149e-12)
(3.41881e-12 -8.62005e-13 -0 3.4188e-12 -0 3.4188e-12)
(3.37755e-12 -8.54244e-13 -0 3.37755e-12 -0 3.37755e-12)
(3.35643e-12 -8.48833e-13 -0 3.35645e-12 -0 3.35644e-12)
(3.37171e-12 -8.58547e-13 -0 3.37171e-12 -0 3.37171e-12)
(3.23128e-12 -7.09109e-13 -0 3.23127e-12 -0 3.23127e-12)
(3.22295e-12 -7.09864e-13 -0 3.22295e-12 -0 3.22295e-12)
(3.21887e-12 -7.08798e-13 -0 3.21888e-12 -0 3.21888e-12)
(3.22996e-12 -7.16203e-13 -0 3.22996e-12 -0 3.22996e-12)
(3.07226e-12 -5.55308e-13 -0 3.07225e-12 -0 3.07225e-12)
(3.07564e-12 -5.58181e-13 -0 3.07565e-12 -0 3.07565e-12)
(3.10382e-12 -5.63152e-13 -0 3.10383e-12 -0 3.10382e-12)
(3.11701e-12 -5.69615e-13 -0 3.11701e-12 -0 3.11701e-12)
(2.94342e-12 -3.99628e-13 -0 2.9434e-12 -0 2.94341e-12)
(2.94822e-12 -4.0202e-13 -0 2.94823e-12 -0 2.94822e-12)
(2.98477e-12 -4.07046e-13 -0 2.98479e-12 -0 2.98478e-12)
(3.00258e-12 -4.12473e-13 -0 3.00258e-12 -0 3.00258e-12)
(2.84865e-12 -2.41397e-13 -0 2.84863e-12 -0 2.84864e-12)
(2.84873e-12 -2.42577e-13 -0 2.84873e-12 -0 2.84873e-12)
(2.89913e-12 -2.47009e-13 -0 2.89915e-12 -0 2.89914e-12)
(2.8991e-12 -2.48836e-13 -0 2.8991e-12 -0 2.8991e-12)
(2.78809e-12 -8.06205e-14 -0 2.78807e-12 -0 2.78808e-12)
(2.7826e-12 -8.09763e-14 -0 2.7826e-12 -0 2.7826e-12)
(2.83982e-12 -8.27288e-14 -0 2.83984e-12 -0 2.83983e-12)
(2.83988e-12 -8.33405e-14 -0 2.83988e-12 -0 2.83988e-12)
)
;

boundaryField
{
    inlet
    {
        type            cyclic;
    }
    outlet
    {
        type            cyclic;
    }
    fixedWalls-bottom
    {
        type            kqRWallFunction;
        value           uniform (1.4803e-16 -0 -0 1.4803e-16 -0 1.4803e-16);
    }
    fixedWalls-top
    {
        type            symmetry;
    }
    frontAndBack
    {
        type            empty;
    }
}


// ************************************************************************* //
