/*--------------------------------*- C++ -*----------------------------------*\
  =========                 |
  \\      /  F ield         | OpenFOAM: The Open Source CFD Toolbox
   \\    /   O peration     | Website:  https://openfoam.org
    \\  /    A nd           | Version:  10
     \\/     M anipulation  |
\*---------------------------------------------------------------------------*/
FoamFile
{
    format      ascii;
    class       volVectorField;
    location    "166";
    object      U;
}
// * * * * * * * * * * * * * * * * * * * * * * * * * * * * * * * * * * * * * //

dimensions      [0 1 -1 0 0 0 0];

internalField   nonuniform List<vector> 
200
(
(0.0138463 -6.05069e-11 0)
(0.0138463 -2.65213e-10 0)
(0.0138464 -5.70503e-11 0)
(0.0138463 2.57934e-10 0)
(0.0416777 7.41478e-10 0)
(0.0416778 -1.98309e-09 0)
(0.0416779 2.71542e-10 0)
(0.0416777 1.94494e-09 0)
(0.0700339 -3.37129e-10 0)
(0.070034 -5.30166e-09 0)
(0.0700343 7.76526e-10 0)
(0.0700339 5.24433e-09 0)
(0.0989136 -1.30307e-09 0)
(0.0989137 -9.90403e-09 0)
(0.0989141 1.73232e-09 0)
(0.0989136 9.82934e-09 0)
(0.128314 -2.73954e-09 0)
(0.128314 -1.5612e-08 0)
(0.128315 3.10632e-09 0)
(0.128314 1.55239e-08 0)
(0.158233 -4.61823e-09 0)
(0.158233 -2.21891e-08 0)
(0.158234 4.94002e-09 0)
(0.158233 2.20921e-08 0)
(0.188665 -7.01465e-09 0)
(0.188665 -2.93944e-08 0)
(0.188665 7.29462e-09 0)
(0.188664 2.92919e-08 0)
(0.219604 -9.99664e-09 0)
(0.219604 -3.6964e-08 0)
(0.219605 1.02474e-08 0)
(0.219604 3.68613e-08 0)
(0.251044 -1.36678e-08 0)
(0.251044 -4.46149e-08 0)
(0.251044 1.38955e-08 0)
(0.251043 4.4513e-08 0)
(0.282976 -1.81506e-08 0)
(0.282976 -5.20454e-08 0)
(0.282976 1.83588e-08 0)
(0.282975 5.19489e-08 0)
(0.31539 -2.35828e-08 0)
(0.315389 -5.89568e-08 0)
(0.31539 2.37744e-08 0)
(0.315389 5.88665e-08 0)
(0.348274 -3.01318e-08 0)
(0.348274 -6.50424e-08 0)
(0.348274 3.03055e-08 0)
(0.348273 6.49627e-08 0)
(0.381616 -3.79664e-08 0)
(0.381615 -7.00224e-08 0)
(0.381616 3.81256e-08 0)
(0.381615 6.99519e-08 0)
(0.415399 -4.72882e-08 0)
(0.415399 -7.36221e-08 0)
(0.415399 4.74301e-08 0)
(0.415398 7.35646e-08 0)
(0.449607 -5.82875e-08 0)
(0.449607 -7.5616e-08 0)
(0.449607 5.84136e-08 0)
(0.449606 7.55709e-08 0)
(0.48422 -7.1176e-08 0)
(0.48422 -7.5798e-08 0)
(0.48422 7.12832e-08 0)
(0.484219 7.57687e-08 0)
(0.519216 -8.61366e-08 0)
(0.519216 -7.403e-08 0)
(0.519216 8.62277e-08 0)
(0.519214 7.40147e-08 0)
(0.554571 -1.03361e-07 0)
(0.55457 -7.02041e-08 0)
(0.55457 1.03433e-07 0)
(0.554569 7.02053e-08 0)
(0.590257 -1.22992e-07 0)
(0.590257 -6.4292e-08 0)
(0.590257 1.23047e-07 0)
(0.590256 6.43085e-08 0)
(0.626246 -1.45159e-07 0)
(0.626245 -5.63002e-08 0)
(0.626245 1.45196e-07 0)
(0.626244 5.6334e-08 0)
(0.662503 -1.69925e-07 0)
(0.662502 -4.63172e-08 0)
(0.662502 1.69944e-07 0)
(0.6625 4.63663e-08 0)
(0.698992 -1.97317e-07 0)
(0.698991 -3.44652e-08 0)
(0.698991 1.97318e-07 0)
(0.698989 3.45306e-08 0)
(0.735673 -2.27281e-07 0)
(0.735673 -2.09421e-08 0)
(0.735672 2.27266e-07 0)
(0.735671 2.10221e-08 0)
(0.772503 -2.59711e-07 0)
(0.772503 -5.96982e-09 0)
(0.772502 2.59679e-07 0)
(0.772501 6.06458e-09 0)
(0.809434 -2.94409e-07 0)
(0.809433 1.01686e-08 0)
(0.809433 2.94363e-07 0)
(0.809432 -1.00615e-08 0)
(0.846413 -3.31115e-07 0)
(0.846413 2.71762e-08 0)
(0.846412 3.31056e-07 0)
(0.846411 -2.70574e-08 0)
(0.883384 -3.69478e-07 0)
(0.883384 4.47131e-08 0)
(0.883383 3.69408e-07 0)
(0.883382 -4.45852e-08 0)
(0.920285 -4.09078e-07 0)
(0.920285 6.24386e-08 0)
(0.920285 4.08998e-07 0)
(0.920283 -6.23024e-08 0)
(0.957049 -4.49412e-07 0)
(0.957049 7.99906e-08 0)
(0.957049 4.49326e-07 0)
(0.957047 -7.98511e-08 0)
(0.993603 -4.89913e-07 0)
(0.993603 9.70151e-08 0)
(0.993603 4.89823e-07 0)
(0.993601 -9.68734e-08 0)
(1.02987 -5.29941e-07 0)
(1.02987 1.13156e-07 0)
(1.02987 5.2985e-07 0)
(1.02987 -1.13016e-07 0)
(1.06576 -5.68799e-07 0)
(1.06576 1.28074e-07 0)
(1.06576 5.68707e-07 0)
(1.06576 -1.27936e-07 0)
(1.10119 -6.0573e-07 0)
(1.10119 1.41445e-07 0)
(1.10118 6.05642e-07 0)
(1.10118 -1.41316e-07 0)
(1.13605 -6.39937e-07 0)
(1.13605 1.52979e-07 0)
(1.13604 6.39853e-07 0)
(1.13604 -1.52858e-07 0)
(1.17023 -6.70576e-07 0)
(1.17023 1.62414e-07 0)
(1.17023 6.70498e-07 0)
(1.17023 -1.62302e-07 0)
(1.20363 -6.96781e-07 0)
(1.20363 1.69533e-07 0)
(1.20363 6.96703e-07 0)
(1.20363 -1.69427e-07 0)
(1.23611 -7.17645e-07 0)
(1.23611 1.74154e-07 0)
(1.23611 7.17575e-07 0)
(1.23611 -1.74059e-07 0)
(1.26755 -7.32271e-07 0)
(1.26755 1.76166e-07 0)
(1.26755 7.32201e-07 0)
(1.26755 -1.76075e-07 0)
(1.29779 -7.39717e-07 0)
(1.29779 1.75493e-07 0)
(1.29779 7.39663e-07 0)
(1.29779 -1.7542e-07 0)
(1.32669 -7.39065e-07 0)
(1.32669 1.7213e-07 0)
(1.32669 7.39022e-07 0)
(1.32669 -1.72071e-07 0)
(1.35408 -7.29344e-07 0)
(1.35408 1.66105e-07 0)
(1.35408 7.29318e-07 0)
(1.35408 -1.6606e-07 0)
(1.37977 -7.0957e-07 0)
(1.37977 1.57507e-07 0)
(1.37977 7.09567e-07 0)
(1.37977 -1.57485e-07 0)
(1.40357 -6.78699e-07 0)
(1.40357 1.46455e-07 0)
(1.40357 6.78715e-07 0)
(1.40358 -1.46445e-07 0)
(1.42529 -6.35634e-07 0)
(1.42529 1.33096e-07 0)
(1.42529 6.35698e-07 0)
(1.42529 -1.33126e-07 0)
(1.4447 -5.79279e-07 0)
(1.4447 1.17529e-07 0)
(1.4447 5.79341e-07 0)
(1.4447 -1.17547e-07 0)
(1.46156 -5.08415e-07 0)
(1.46156 9.96869e-08 0)
(1.46156 5.08506e-07 0)
(1.46156 -9.9724e-08 0)
(1.47562 -4.21872e-07 0)
(1.47562 7.94592e-08 0)
(1.47562 4.21937e-07 0)
(1.47562 -7.94713e-08 0)
(1.48661 -3.19261e-07 0)
(1.4866 5.82242e-08 0)
(1.48661 3.19313e-07 0)
(1.48661 -5.82072e-08 0)
(1.49423 -2.02476e-07 0)
(1.49423 3.48066e-08 0)
(1.49424 2.02275e-07 0)
(1.49424 -3.49535e-08 0)
(1.49819 -6.78554e-08 0)
(1.49819 1.2603e-08 0)
(1.49819 6.80329e-08 0)
(1.4982 -1.24595e-08 0)
)
;

boundaryField
{
    inlet
    {
        type            cyclic;
    }
    outlet
    {
        type            cyclic;
    }
    fixedWalls-bottom
    {
        type            noSlip;
    }
    fixedWalls-top
    {
        type            symmetry;
    }
    frontAndBack
    {
        type            empty;
    }
}


// ************************************************************************* //
