/*--------------------------------*- C++ -*----------------------------------*\
  =========                 |
  \\      /  F ield         | OpenFOAM: The Open Source CFD Toolbox
   \\    /   O peration     | Website:  https://openfoam.org
    \\  /    A nd           | Version:  10
     \\/     M anipulation  |
\*---------------------------------------------------------------------------*/
FoamFile
{
    format      ascii;
    class       volScalarField;
    location    "7500";
    object      k;
}
// * * * * * * * * * * * * * * * * * * * * * * * * * * * * * * * * * * * * * //

dimensions      [0 2 -2 0 0 0 0];

internalField   nonuniform List<scalar> 
400
(
7.74208e-15
7.73543e-15
7.73146e-15
7.73623e-15
2.3224e-13
2.3204e-13
2.31921e-13
2.32064e-13
1.64455e-12
1.64314e-12
1.64229e-12
1.64331e-12
5.97836e-12
5.97322e-12
5.97016e-12
5.97384e-12
1.54672e-11
1.54539e-11
1.5446e-11
1.54555e-11
3.27521e-11
3.2724e-11
3.27072e-11
3.27273e-11
6.08597e-11
6.08074e-11
6.07762e-11
6.08136e-11
1.03202e-10
1.03114e-10
1.03061e-10
1.03124e-10
1.63588e-10
1.63447e-10
1.63364e-10
1.63464e-10
2.46226e-10
2.46015e-10
2.45889e-10
2.46039e-10
3.55732e-10
3.55428e-10
3.55245e-10
3.55461e-10
4.971e-10
4.96676e-10
4.9642e-10
4.9672e-10
6.75643e-10
6.75067e-10
6.7472e-10
6.75125e-10
8.96876e-10
8.96114e-10
8.95653e-10
8.96186e-10
1.16633e-09
1.16535e-09
1.16475e-09
1.16544e-09
1.48932e-09
1.48808e-09
1.48731e-09
1.48818e-09
1.87063e-09
1.86909e-09
1.86812e-09
1.8692e-09
2.31419e-09
2.31232e-09
2.31112e-09
2.31244e-09
2.8228e-09
2.82056e-09
2.81911e-09
2.8207e-09
3.39783e-09
3.39522e-09
3.39347e-09
3.39536e-09
4.03911e-09
4.03614e-09
4.03406e-09
4.03628e-09
4.74489e-09
4.74156e-09
4.73912e-09
4.7417e-09
5.51186e-09
5.50823e-09
5.5054e-09
5.50835e-09
6.33537e-09
6.33147e-09
6.32823e-09
6.33158e-09
7.20953e-09
7.20544e-09
7.20177e-09
7.20554e-09
8.1274e-09
8.12322e-09
8.1191e-09
8.1233e-09
9.081e-09
9.07683e-09
9.07225e-09
9.07688e-09
1.0061e-08
1.0057e-08
1.00519e-08
1.0057e-08
1.10563e-08
1.10526e-08
1.10471e-08
1.10526e-08
1.20564e-08
1.2053e-08
1.20471e-08
1.2053e-08
1.30546e-08
1.30515e-08
1.30452e-08
1.30516e-08
1.40445e-08
1.40419e-08
1.40352e-08
1.4042e-08
1.50204e-08
1.50182e-08
1.50113e-08
1.50185e-08
1.59769e-08
1.5975e-08
1.59679e-08
1.59754e-08
1.69087e-08
1.69073e-08
1.68999e-08
1.69078e-08
1.78112e-08
1.78102e-08
1.78027e-08
1.78108e-08
1.86908e-08
1.869e-08
1.86823e-08
1.86907e-08
1.95527e-08
1.9552e-08
1.9544e-08
1.95526e-08
2.04004e-08
2.03996e-08
2.03912e-08
2.04003e-08
2.12359e-08
2.12351e-08
2.12264e-08
2.12358e-08
2.20606e-08
2.20598e-08
2.20507e-08
2.20605e-08
2.2875e-08
2.28742e-08
2.28646e-08
2.28748e-08
2.36791e-08
2.36782e-08
2.36682e-08
2.36789e-08
2.44723e-08
2.44714e-08
2.4461e-08
2.44721e-08
2.52541e-08
2.52532e-08
2.52423e-08
2.52539e-08
2.60235e-08
2.60225e-08
2.60112e-08
2.60232e-08
2.67793e-08
2.67783e-08
2.67664e-08
2.6779e-08
2.75202e-08
2.75191e-08
2.75067e-08
2.75199e-08
2.82449e-08
2.82437e-08
2.82308e-08
2.82446e-08
2.89518e-08
2.89504e-08
2.8937e-08
2.89514e-08
2.96393e-08
2.96378e-08
2.96237e-08
2.96389e-08
3.03056e-08
3.03039e-08
3.02893e-08
3.03052e-08
3.09491e-08
3.09471e-08
3.09319e-08
3.09486e-08
3.15677e-08
3.15654e-08
3.15495e-08
3.15671e-08
3.21594e-08
3.21567e-08
3.21403e-08
3.21588e-08
3.27222e-08
3.2719e-08
3.2702e-08
3.27214e-08
3.32537e-08
3.32501e-08
3.32324e-08
3.32528e-08
3.37516e-08
3.37475e-08
3.37292e-08
3.37507e-08
3.42134e-08
3.42089e-08
3.419e-08
3.42125e-08
3.46366e-08
3.46316e-08
3.46121e-08
3.46356e-08
3.50183e-08
3.50131e-08
3.49929e-08
3.50175e-08
3.53559e-08
3.53503e-08
3.53296e-08
3.53551e-08
3.56462e-08
3.56405e-08
3.56192e-08
3.56456e-08
3.58864e-08
3.58805e-08
3.58587e-08
3.58858e-08
3.60731e-08
3.60672e-08
3.60449e-08
3.60726e-08
3.62031e-08
3.61972e-08
3.61745e-08
3.62027e-08
3.62729e-08
3.62672e-08
3.62441e-08
3.62727e-08
3.62792e-08
3.62737e-08
3.62503e-08
3.62793e-08
3.62185e-08
3.62133e-08
3.61895e-08
3.6219e-08
3.60873e-08
3.60823e-08
3.60582e-08
3.60882e-08
3.58821e-08
3.58774e-08
3.5853e-08
3.58835e-08
3.55995e-08
3.5595e-08
3.55705e-08
3.56013e-08
3.52363e-08
3.5232e-08
3.52074e-08
3.52384e-08
3.47893e-08
3.4785e-08
3.47605e-08
3.47916e-08
3.42552e-08
3.4251e-08
3.42267e-08
3.42578e-08
3.36311e-08
3.3627e-08
3.3603e-08
3.36337e-08
3.29132e-08
3.29094e-08
3.28857e-08
3.29158e-08
3.20972e-08
3.20939e-08
3.20705e-08
3.20998e-08
3.11771e-08
3.11744e-08
3.11511e-08
3.11793e-08
3.01437e-08
3.01415e-08
3.01177e-08
3.01451e-08
2.89909e-08
2.8989e-08
2.89649e-08
2.89917e-08
2.77251e-08
2.77234e-08
2.7699e-08
2.77252e-08
2.63533e-08
2.63517e-08
2.6327e-08
2.63527e-08
2.48853e-08
2.48837e-08
2.48584e-08
2.48837e-08
2.33369e-08
2.33353e-08
2.33093e-08
2.33341e-08
2.17268e-08
2.17252e-08
2.16986e-08
2.17228e-08
2.00762e-08
2.00747e-08
2.00476e-08
2.0071e-08
1.84235e-08
1.84221e-08
1.83953e-08
1.84171e-08
1.68028e-08
1.68018e-08
1.67757e-08
1.67955e-08
1.52435e-08
1.52428e-08
1.52177e-08
1.52352e-08
1.37708e-08
1.37704e-08
1.37465e-08
1.37616e-08
1.24066e-08
1.24064e-08
1.23839e-08
1.23965e-08
1.11689e-08
1.11688e-08
1.11476e-08
1.11581e-08
1.00714e-08
1.00715e-08
1.00517e-08
1.00603e-08
9.12382e-09
9.12397e-09
9.1055e-09
9.11254e-09
8.33165e-09
8.3319e-09
8.31466e-09
8.32046e-09
7.69735e-09
7.69767e-09
7.68152e-09
7.68638e-09
7.22137e-09
7.22173e-09
7.20645e-09
7.21065e-09
6.90339e-09
6.90377e-09
6.88909e-09
6.8929e-09
6.7432e-09
6.74361e-09
6.72924e-09
6.73286e-09
)
;

boundaryField
{
    inlet
    {
        type            cyclic;
    }
    outlet
    {
        type            cyclic;
    }
    fixedWalls-bottom
    {
        type            kqRWallFunction;
        value           nonuniform List<scalar> 4(7.74208e-15 7.73543e-15 7.73146e-15 7.73623e-15);
    }
    fixedWalls-top
    {
        type            symmetry;
    }
    frontAndBack
    {
        type            empty;
    }
}


// ************************************************************************* //
