/*--------------------------------*- C++ -*----------------------------------*\
  =========                 |
  \\      /  F ield         | OpenFOAM: The Open Source CFD Toolbox
   \\    /   O peration     | Website:  https://openfoam.org
    \\  /    A nd           | Version:  10
     \\/     M anipulation  |
\*---------------------------------------------------------------------------*/
FoamFile
{
    format      ascii;
    class       volScalarField;
    location    "7500";
    object      p;
}
// * * * * * * * * * * * * * * * * * * * * * * * * * * * * * * * * * * * * * //

dimensions      [0 2 -2 0 0 0 0];

internalField   nonuniform List<scalar> 
400
(
3.38907e-16
4.0302e-12
-1.35424e-12
-5.37878e-12
-1.62053e-16
4.02936e-12
-1.35328e-12
-5.37794e-12
-1.07049e-15
4.02873e-12
-1.3522e-12
-5.37731e-12
-1.91052e-15
4.02859e-12
-1.35123e-12
-5.37717e-12
-2.69715e-15
4.02891e-12
-1.35034e-12
-5.37749e-12
-3.39677e-15
4.02969e-12
-1.34952e-12
-5.37827e-12
-4.05516e-15
4.03093e-12
-1.34877e-12
-5.37952e-12
-4.6187e-15
4.03267e-12
-1.3481e-12
-5.38126e-12
-5.12208e-15
4.03489e-12
-1.34751e-12
-5.38348e-12
-5.51693e-15
4.03762e-12
-1.34702e-12
-5.38622e-12
-5.8394e-15
4.04086e-12
-1.34662e-12
-5.38946e-12
-6.04391e-15
4.04462e-12
-1.34632e-12
-5.39322e-12
-6.16995e-15
4.04888e-12
-1.34612e-12
-5.39749e-12
-6.17493e-15
4.05366e-12
-1.34602e-12
-5.40227e-12
-6.10332e-15
4.05892e-12
-1.34601e-12
-5.40753e-12
-5.91662e-15
4.06464e-12
-1.34611e-12
-5.41325e-12
-5.66475e-15
4.07073e-12
-1.34629e-12
-5.41935e-12
-5.32319e-15
4.07713e-12
-1.34655e-12
-5.42574e-12
-4.95795e-15
4.08361e-12
-1.34684e-12
-5.43223e-12
-4.57693e-15
4.08991e-12
-1.34714e-12
-5.43853e-12
-4.2977e-15
4.09544e-12
-1.34735e-12
-5.44407e-12
-4.2093e-15
4.09932e-12
-1.34735e-12
-5.44796e-12
-4.55521e-15
4.09999e-12
-1.34694e-12
-5.44863e-12
-5.69534e-15
4.09507e-12
-1.34572e-12
-5.44371e-12
-8.50894e-15
4.07981e-12
-1.34284e-12
-5.42846e-12
-1.47206e-14
4.04252e-12
-1.33656e-12
-5.39118e-12
-2.6936e-14
3.96e-12
-1.32428e-12
-5.30866e-12
-4.46737e-14
3.82215e-12
-1.30647e-12
-5.17081e-12
-5.49971e-14
3.72038e-12
-1.29609e-12
-5.06905e-12
-5.42989e-14
3.69313e-12
-1.29672e-12
-5.04181e-12
-5.24809e-14
3.67559e-12
-1.29848e-12
-5.02427e-12
-5.16518e-14
3.65392e-12
-1.29924e-12
-5.00261e-12
-5.15122e-14
3.63118e-12
-1.29933e-12
-4.97987e-12
-5.1839e-14
3.60988e-12
-1.29894e-12
-4.95857e-12
-5.26464e-14
3.59048e-12
-1.29808e-12
-4.93918e-12
-5.39125e-14
3.57312e-12
-1.29675e-12
-4.92183e-12
-5.5508e-14
3.55719e-12
-1.29511e-12
-4.9059e-12
-5.72752e-14
3.54174e-12
-1.29328e-12
-4.89046e-12
-5.91139e-14
3.52586e-12
-1.29139e-12
-4.87459e-12
-6.10095e-14
3.50915e-12
-1.28944e-12
-4.85788e-12
-6.29147e-14
3.49116e-12
-1.28749e-12
-4.83989e-12
-6.4838e-14
3.47179e-12
-1.28551e-12
-4.82054e-12
-6.67355e-14
3.45073e-12
-1.28357e-12
-4.79948e-12
-6.86555e-14
3.42796e-12
-1.2816e-12
-4.77672e-12
-7.05671e-14
3.40313e-12
-1.27964e-12
-4.75189e-12
-7.25639e-14
3.37625e-12
-1.2776e-12
-4.72502e-12
-7.46425e-14
3.34691e-12
-1.27548e-12
-4.69568e-12
-7.69573e-14
3.31511e-12
-1.27313e-12
-4.66388e-12
-7.95453e-14
3.28034e-12
-1.2705e-12
-4.62912e-12
-8.26182e-14
3.2426e-12
-1.26739e-12
-4.59138e-12
-8.62723e-14
3.20127e-12
-1.26369e-12
-4.55006e-12
-9.07934e-14
3.15631e-12
-1.25913e-12
-4.5051e-12
-9.6359e-14
3.10703e-12
-1.25353e-12
-4.45583e-12
-1.03318e-13
3.05336e-12
-1.24652e-12
-4.40217e-12
-1.11876e-13
2.99459e-12
-1.23793e-12
-4.34341e-12
-1.22391e-13
2.93072e-12
-1.22737e-12
-4.27954e-12
-1.35057e-13
2.8611e-12
-1.21467e-12
-4.20993e-12
-1.5021e-13
2.78585e-12
-1.19947e-12
-4.13469e-12
-1.68014e-13
2.70451e-12
-1.18163e-12
-4.05335e-12
-1.88741e-13
2.6174e-12
-1.16086e-12
-3.96625e-12
-2.12458e-13
2.52436e-12
-1.1371e-12
-3.87322e-12
-2.39282e-13
2.42589e-12
-1.11023e-12
-3.77475e-12
-2.69058e-13
2.32191e-12
-1.08042e-12
-3.67078e-12
-3.0157e-13
2.21297e-12
-1.04786e-12
-3.56184e-12
-3.36172e-13
2.09908e-12
-1.01322e-12
-3.44796e-12
-3.7203e-13
1.98085e-12
-9.77322e-13
-3.32973e-12
-4.08408e-13
1.85842e-12
-9.40905e-13
-3.20731e-12
-4.44978e-13
1.73243e-12
-9.04298e-13
-3.08133e-12
-4.81437e-13
1.60299e-12
-8.67805e-13
-2.95189e-12
-5.18456e-13
1.47064e-12
-8.30747e-13
-2.81956e-12
-5.56955e-13
1.33533e-12
-7.92218e-13
-2.68426e-12
-5.97718e-13
1.19738e-12
-7.51427e-13
-2.54632e-12
-6.40985e-13
1.05711e-12
-7.08138e-13
-2.40606e-12
-6.8678e-13
9.15835e-13
-6.62316e-13
-2.2648e-12
-7.34521e-13
7.74756e-13
-6.14559e-13
-2.12373e-12
-7.8333e-13
6.35515e-13
-5.65731e-13
-1.9845e-12
-8.31686e-13
4.99129e-13
-5.17362e-13
-1.84812e-12
-8.77196e-13
3.66455e-13
-4.71839e-13
-1.71546e-12
-9.14435e-13
2.3618e-13
-4.3458e-13
-1.5852e-12
-9.36634e-13
1.05461e-13
-4.12364e-13
-1.45449e-12
-9.4343e-13
-2.78868e-14
-4.05555e-13
-1.32115e-12
-9.39687e-13
-1.65916e-13
-4.09285e-13
-1.18313e-12
-9.27716e-13
-3.07518e-13
-4.2124e-13
-1.04154e-12
-9.05689e-13
-4.19398e-13
-4.43248e-13
-9.29665e-13
-8.71299e-13
-4.55611e-13
-4.77624e-13
-8.93455e-13
-8.42534e-13
-6.63349e-13
-5.06373e-13
-6.85723e-13
-8.8868e-13
-2.18852e-12
-4.60211e-13
8.39449e-13
-9.60143e-13
-4.40893e-12
-3.88733e-13
3.05987e-12
-9.79655e-13
-5.74778e-12
-3.69206e-13
4.39872e-12
-9.67952e-13
-6.37714e-12
-3.80889e-13
5.02808e-12
-9.33068e-13
-6.70657e-12
-4.15755e-13
5.35751e-12
-8.88967e-13
-6.90385e-12
-4.59845e-13
5.55478e-12
-8.45595e-13
-7.02133e-12
-5.03204e-13
5.67226e-12
-8.08424e-13
-7.08603e-12
-5.40369e-13
5.73696e-12
-7.79675e-13
-7.11832e-12
-5.69115e-13
5.76925e-12
-7.59301e-13
-7.13201e-12
-5.89476e-13
5.78293e-12
-7.45913e-13
-7.13589e-12
-6.0286e-13
5.78681e-12
-7.37824e-13
-7.13542e-12
-6.10946e-13
5.78634e-12
-7.33622e-13
-7.13414e-12
-6.15141e-13
5.78506e-12
-7.32189e-13
-7.13428e-12
-6.1656e-13
5.78519e-12
)
;

boundaryField
{
    inlet
    {
        type            cyclic;
    }
    outlet
    {
        type            cyclic;
    }
    fixedWalls-bottom
    {
        type            zeroGradient;
    }
    fixedWalls-top
    {
        type            symmetry;
    }
    frontAndBack
    {
        type            empty;
    }
}


// ************************************************************************* //
