/*--------------------------------*- C++ -*----------------------------------*\
  =========                 |
  \\      /  F ield         | OpenFOAM: The Open Source CFD Toolbox
   \\    /   O peration     | Website:  https://openfoam.org
    \\  /    A nd           | Version:  10
     \\/     M anipulation  |
\*---------------------------------------------------------------------------*/
FoamFile
{
    format      ascii;
    class       volScalarField;
    location    "10000";
    object      omega;
}
// * * * * * * * * * * * * * * * * * * * * * * * * * * * * * * * * * * * * * //

dimensions      [0 0 -1 0 0 0 0];

internalField   nonuniform List<scalar> 
400
(
39205.8
39205.8
39205.8
39205.8
6429.27
6429.27
6429.27
6429.27
2120.15
2120.15
2120.16
2120.15
986.027
986.027
986.026
986.026
555.692
555.689
555.685
555.686
353.454
353.447
353.441
353.443
244.073
244.064
244.058
244.06
178.538
178.527
178.523
178.525
136.151
136.14
136.138
136.139
107.103
107.093
107.092
107.093
86.2882
86.28
86.2789
86.28
70.8587
70.8517
70.8507
70.8516
59.1348
59.1286
59.1275
59.1282
50.0584
50.0526
50.0512
50.0518
42.9224
42.9167
42.9147
42.9153
37.2368
37.2308
37.2283
37.2289
32.6541
32.6476
32.6444
32.6451
28.9227
28.9156
28.9116
28.9123
25.857
25.8492
25.8445
25.8451
23.3182
23.3097
23.304
23.3045
21.2003
21.1912
21.1845
21.1849
19.4218
19.4121
19.4044
19.4045
17.919
17.9088
17.9
17.8996
16.6415
16.6309
16.621
16.6202
15.5492
15.5385
15.5275
15.5261
14.61
14.5992
14.5873
14.5851
13.7977
13.7872
13.7744
13.7711
13.0911
13.0811
13.0677
13.0631
12.4729
12.4636
12.4498
12.4435
11.9289
11.9204
11.9064
11.8982
11.4471
11.4395
11.4257
11.4154
11.0178
11.0112
10.9977
10.9852
10.6329
10.627
10.6143
10.5995
10.2856
10.2804
10.2686
10.2516
9.97016
9.96557
9.95461
9.93562
9.68179
9.67771
9.66755
9.64689
9.41643
9.41278
9.40316
9.38135
9.17063
9.16732
9.15816
9.13545
8.94145
8.93841
8.92964
8.90621
8.72634
8.72353
8.71509
8.69109
8.52312
8.52048
8.51235
8.48787
8.32985
8.32737
8.31951
8.29462
8.14486
8.14249
8.13489
8.10964
7.96661
7.96433
7.95697
7.93138
7.7937
7.79149
7.78436
7.75847
7.62481
7.62267
7.61572
7.58955
7.45864
7.45657
7.44972
7.42334
7.29395
7.292
7.28508
7.25857
7.12968
7.12795
7.12073
7.09418
6.96519
6.96384
6.95602
6.92949
6.80036
6.79955
6.79085
6.76434
6.63552
6.63525
6.62561
6.59901
6.47137
6.47135
6.46092
6.43412
6.30883
6.30837
6.29778
6.27072
6.14854
6.14811
6.13746
6.11008
5.99206
5.99182
5.98113
5.95351
5.8411
5.84024
5.82965
5.8019
5.69517
5.69416
5.68362
5.65559
5.55445
5.55352
5.54296
5.5147
5.41884
5.41806
5.40744
5.37907
5.28803
5.28741
5.2767
5.24838
5.16164
5.16113
5.15032
5.12225
5.03925
5.03881
5.02788
5.00027
4.9204
4.92012
4.90904
4.88202
4.8047
4.80483
4.79359
4.76711
4.69195
4.69281
4.68142
4.6552
4.58281
4.58335
4.57238
4.54612
4.47536
4.47676
4.4659
4.43933
4.36962
4.37254
4.36142
4.33482
4.26682
4.26998
4.25898
4.23261
4.16665
4.16883
4.15867
4.13243
4.06896
4.06845
4.06058
4.03411
3.97351
3.9672
3.96504
3.93746
3.87875
3.87193
3.8699
3.84242
3.78505
3.77946
3.77616
3.74889
3.69278
3.69063
3.68368
3.65668
3.60284
3.59702
3.59614
3.56546
3.51855
3.5068
3.50959
3.47588
3.43207
3.41985
3.42211
3.38897
3.34705
3.33443
3.33643
3.30378
3.26357
3.25068
3.25262
3.2203
3.18173
3.16868
3.17068
3.13859
3.10163
3.08849
3.09066
3.05871
3.02332
3.01018
3.01262
2.98074
2.9469
2.93387
2.93667
2.90475
2.8724
2.85969
2.86288
2.83085
2.79981
2.78784
2.79124
2.75918
2.72899
2.71863
2.72121
2.69007
2.65928
2.65284
2.65076
2.62415
2.58856
2.59293
2.57825
2.56186
2.52569
2.53037
2.51444
2.50077
2.4663
2.47127
2.45517
2.4421
2.41089
2.41573
2.40025
2.38657
2.35939
2.36407
2.35059
2.33438
2.31229
2.31536
2.30606
2.28637
2.2702
2.26455
2.26297
2.24432
2.23248
2.22538
2.22464
2.20659
2.20026
2.19318
2.19136
2.17438
2.17454
2.16907
2.1635
2.14838
2.15665
2.15642
2.14263
2.12865
)
;

boundaryField
{
    inlet
    {
        type            cyclic;
    }
    outlet
    {
        type            cyclic;
    }
    fixedWalls-bottom
    {
        beta1           0.075;
        blended         0;
        type            omegaWallFunction;
        value           uniform 39205.8;
    }
    fixedWalls-top
    {
        type            symmetry;
    }
    frontAndBack
    {
        type            empty;
    }
}


// ************************************************************************* //
