/*--------------------------------*- C++ -*----------------------------------*\
  =========                 |
  \\      /  F ield         | OpenFOAM: The Open Source CFD Toolbox
   \\    /   O peration     | Website:  https://openfoam.org
    \\  /    A nd           | Version:  10
     \\/     M anipulation  |
\*---------------------------------------------------------------------------*/
FoamFile
{
    format      ascii;
    class       volScalarField;
    location    "10000";
    object      p;
}
// * * * * * * * * * * * * * * * * * * * * * * * * * * * * * * * * * * * * * //

dimensions      [0 2 -2 0 0 0 0];

internalField   nonuniform List<scalar> 
400
(
-5.26775e-20
-4.60514e-17
-1.9687e-16
-1.3987e-16
2.26093e-18
-4.61885e-17
-1.96557e-16
-1.39717e-16
1.95985e-18
-4.6386e-17
-1.96213e-16
-1.39513e-16
9.17602e-19
-4.65581e-17
-1.95907e-16
-1.39256e-16
4.24084e-19
-4.6767e-17
-1.95599e-16
-1.38995e-16
4.66267e-19
-4.70406e-17
-1.95301e-16
-1.38615e-16
5.56388e-19
-4.74055e-17
-1.94924e-16
-1.38136e-16
8.73739e-19
-4.76168e-17
-1.94647e-16
-1.37807e-16
1.1737e-18
-4.77255e-17
-1.94398e-16
-1.37615e-16
1.53436e-18
-4.77123e-17
-1.94224e-16
-1.37468e-16
1.80582e-18
-4.76571e-17
-1.94088e-16
-1.37307e-16
2.27895e-18
-4.77714e-17
-1.93986e-16
-1.37029e-16
2.66317e-18
-4.801e-17
-1.93786e-16
-1.36735e-16
3.05931e-18
-4.78177e-17
-1.93766e-16
-1.36675e-16
3.50485e-18
-4.73732e-17
-1.93766e-16
-1.36958e-16
4.18618e-18
-4.711e-17
-1.93899e-16
-1.37016e-16
4.82329e-18
-4.71473e-17
-1.94082e-16
-1.36658e-16
5.60227e-18
-4.70225e-17
-1.94291e-16
-1.36483e-16
6.50756e-18
-4.70598e-17
-1.94553e-16
-1.36333e-16
7.2129e-18
-4.71782e-17
-1.94735e-16
-1.35981e-16
7.87541e-18
-4.73824e-17
-1.94852e-16
-1.35447e-16
8.67824e-18
-4.73864e-17
-1.95009e-16
-1.35216e-16
9.31672e-18
-4.78136e-17
-1.95249e-16
-1.34563e-16
1.01363e-17
-4.86523e-17
-1.95502e-16
-1.33531e-16
1.11121e-17
-4.9467e-17
-1.95816e-16
-1.32571e-16
1.21084e-17
-5.02627e-17
-1.96112e-16
-1.31716e-16
1.3026e-17
-5.08338e-17
-1.96611e-16
-1.30928e-16
1.39691e-17
-5.15619e-17
-1.97127e-16
-1.29787e-16
1.5063e-17
-5.22905e-17
-1.97912e-16
-1.28717e-16
1.62579e-17
-5.30005e-17
-1.98754e-16
-1.27604e-16
1.73089e-17
-5.37277e-17
-1.99527e-16
-1.26632e-16
1.83203e-17
-5.44462e-17
-2.0018e-16
-1.2562e-16
1.94812e-17
-5.54815e-17
-2.01092e-16
-1.24248e-16
2.03976e-17
-5.66569e-17
-2.01988e-16
-1.22635e-16
2.13963e-17
-5.74542e-17
-2.0262e-16
-1.21644e-16
2.28443e-17
-5.80751e-17
-2.03666e-16
-1.20689e-16
2.40348e-17
-5.87061e-17
-2.04727e-16
-1.19592e-16
2.55334e-17
-5.92714e-17
-2.05861e-16
-1.18931e-16
2.66551e-17
-5.97239e-17
-2.06902e-16
-1.18129e-16
2.73092e-17
-6.05089e-17
-2.0722e-16
-1.17105e-16
2.79946e-17
-6.11753e-17
-2.07678e-16
-1.16331e-16
2.92411e-17
-6.25578e-17
-2.08139e-16
-1.15216e-16
3.01442e-17
-6.40896e-17
-2.08135e-16
-1.14098e-16
3.03727e-17
-6.57668e-17
-2.07535e-16
-1.12654e-16
3.06483e-17
-6.78084e-17
-2.07049e-16
-1.1085e-16
3.09959e-17
-6.9168e-17
-2.06476e-16
-1.10171e-16
3.17474e-17
-7.09366e-17
-2.06546e-16
-1.0866e-16
3.37329e-17
-7.14149e-17
-2.07822e-16
-1.08011e-16
3.57536e-17
-7.21969e-17
-2.09464e-16
-1.07356e-16
3.77226e-17
-7.31107e-17
-2.10796e-16
-1.06398e-16
3.98456e-17
-7.41245e-17
-2.1193e-16
-1.05773e-16
4.18158e-17
-7.48522e-17
-2.13038e-16
-1.05076e-16
4.40538e-17
-7.41722e-17
-2.14733e-16
-1.06121e-16
4.63674e-17
-7.3855e-17
-2.16415e-16
-1.0697e-16
4.74578e-17
-7.36789e-17
-2.1727e-16
-1.06946e-16
4.90675e-17
-7.25228e-17
-2.18829e-16
-1.0759e-16
5.15792e-17
-7.17358e-17
-2.20221e-16
-1.08839e-16
5.39771e-17
-7.01248e-17
-2.2188e-16
-1.10523e-16
5.60418e-17
-6.77438e-17
-2.23024e-16
-1.12994e-16
5.68129e-17
-6.44967e-17
-2.23293e-16
-1.16282e-16
5.76857e-17
-6.009e-17
-2.23909e-16
-1.20524e-16
5.82988e-17
-5.71647e-17
-2.24817e-16
-1.22817e-16
5.84451e-17
-5.46872e-17
-2.25425e-16
-1.24322e-16
5.89302e-17
-5.29392e-17
-2.25557e-16
-1.25872e-16
5.93495e-17
-4.92142e-17
-2.2544e-16
-1.29497e-16
5.82442e-17
-4.54808e-17
-2.24774e-16
-1.32407e-16
5.58136e-17
-4.14354e-17
-2.2318e-16
-1.35312e-16
5.44838e-17
-3.80665e-17
-2.21442e-16
-1.38629e-16
5.33082e-17
-3.59828e-17
-2.20245e-16
-1.40149e-16
5.16013e-17
-3.48604e-17
-2.19103e-16
-1.40677e-16
4.95274e-17
-3.28159e-17
-2.17528e-16
-1.41954e-16
4.6953e-17
-3.07309e-17
-2.15689e-16
-1.42791e-16
4.45485e-17
-2.95122e-17
-2.13615e-16
-1.43509e-16
4.1665e-17
-2.9556e-17
-2.10866e-16
-1.42961e-16
3.79445e-17
-2.87007e-17
-2.08058e-16
-1.4249e-16
3.47743e-17
-2.80344e-17
-2.05279e-16
-1.42462e-16
3.2436e-17
-2.87357e-17
-2.03791e-16
-1.40867e-16
3.16061e-17
-2.99408e-17
-2.02246e-16
-1.40044e-16
3.15726e-17
-3.05912e-17
-2.0244e-16
-1.38994e-16
3.04549e-17
-3.20955e-17
-2.013e-16
-1.3742e-16
2.82373e-17
-3.52296e-17
-1.99853e-16
-1.33426e-16
2.5617e-17
-3.8224e-17
-1.98009e-16
-1.29881e-16
2.25595e-17
-4.10261e-17
-1.94625e-16
-1.27074e-16
1.88174e-17
-4.42455e-17
-1.9011e-16
-1.24687e-16
1.3756e-17
-4.56213e-17
-1.84313e-16
-1.23918e-16
7.14814e-18
-4.68715e-17
-1.77538e-16
-1.22638e-16
2.53956e-18
-4.83282e-17
-1.72468e-16
-1.21749e-16
-2.12514e-18
-4.96703e-17
-1.67439e-16
-1.20949e-16
-5.72012e-18
-5.00951e-17
-1.63939e-16
-1.20528e-16
-8.80418e-18
-5.1704e-17
-1.603e-16
-1.19615e-16
-1.02774e-17
-5.68058e-17
-1.58093e-16
-1.1508e-16
-1.07027e-17
-6.1112e-17
-1.5708e-16
-1.11791e-16
-1.01164e-17
-6.29033e-17
-1.57401e-16
-1.10279e-16
-7.95483e-18
-6.46075e-17
-1.59086e-16
-1.08844e-16
-5.34892e-18
-6.74157e-17
-1.61658e-16
-1.06386e-16
-1.73948e-18
-7.08721e-17
-1.64103e-16
-1.04007e-16
2.05616e-18
-7.21896e-17
-1.67748e-16
-1.03051e-16
5.25284e-18
-7.30606e-17
-1.71393e-16
-1.0162e-16
8.14172e-18
-7.53795e-17
-1.74099e-16
-9.97197e-17
1.14861e-17
-7.68344e-17
-1.77931e-16
-9.77773e-17
)
;

boundaryField
{
    inlet
    {
        type            cyclic;
    }
    outlet
    {
        type            cyclic;
    }
    fixedWalls-bottom
    {
        type            zeroGradient;
    }
    fixedWalls-top
    {
        type            symmetry;
    }
    frontAndBack
    {
        type            empty;
    }
}


// ************************************************************************* //
