/*--------------------------------*- C++ -*----------------------------------*\
  =========                 |
  \\      /  F ield         | OpenFOAM: The Open Source CFD Toolbox
   \\    /   O peration     | Website:  https://openfoam.org
    \\  /    A nd           | Version:  10
     \\/     M anipulation  |
\*---------------------------------------------------------------------------*/
FoamFile
{
    format      ascii;
    class       surfaceScalarField;
    location    "10000";
    object      phi;
}
// * * * * * * * * * * * * * * * * * * * * * * * * * * * * * * * * * * * * * //

dimensions      [0 3 -1 0 0 0 0];

internalField   nonuniform List<scalar> 
696
(
6.38551e-05
-3.69109e-20
6.38551e-05
-9.11823e-20
6.38551e-05
2.53568e-19
8.04108e-20
0.000194578
-6.90996e-19
0.000194578
-4.11318e-19
0.000194578
1.02887e-18
3.56212e-19
0.000330204
-1.96874e-18
0.000330204
-1.07515e-18
0.000330204
2.30054e-18
9.75326e-19
0.000470862
-3.80698e-18
0.000470862
-2.03563e-18
0.000470862
4.18632e-18
1.93564e-18
0.000616684
-6.11036e-18
0.000616684
-3.44154e-18
0.000616684
6.692e-18
3.01343e-18
0.000767804
-8.76977e-18
0.000767804
-5.19553e-18
0.000767804
9.73246e-18
4.51772e-18
0.000924357
-1.27403e-17
0.000924357
-7.92553e-18
0.000924357
1.37319e-17
7.24651e-18
0.00108648
-1.68266e-17
0.00108648
-1.0436e-17
0.00108648
1.7556e-17
1.00046e-17
0.00125432
-2.12511e-17
0.00125432
-1.37967e-17
0.00125432
2.22455e-17
1.30139e-17
0.00142802
-2.56336e-17
0.00142802
-1.67225e-17
0.00142802
2.70932e-17
1.56009e-17
0.00160771
-3.08302e-17
0.00160771
-1.96155e-17
0.00160771
3.2111e-17
1.85969e-17
0.00179356
-3.61798e-17
0.00179356
-2.20485e-17
0.00179356
3.72669e-17
2.13486e-17
0.00198571
-4.1722e-17
0.00198571
-2.5574e-17
0.00198571
4.33956e-17
2.47058e-17
0.0021843
-4.79662e-17
0.0021843
-2.77308e-17
0.0021843
4.90849e-17
2.70345e-17
0.00238951
-5.38393e-17
0.00238951
-2.94876e-17
0.00238951
5.52527e-17
2.83195e-17
0.00260148
-5.95038e-17
0.00260148
-2.97663e-17
0.00260148
6.09882e-17
2.86743e-17
0.00282037
-6.47537e-17
0.00282037
-3.00794e-17
0.00282037
6.5736e-17
2.88879e-17
0.00304635
-6.94539e-17
0.00304635
-2.93162e-17
0.00304635
7.08924e-17
2.82893e-17
0.00327957
-7.22874e-17
0.00327957
-2.83622e-17
0.00327957
7.39897e-17
2.71911e-17
0.0035202
-7.71594e-17
0.0035202
-2.64137e-17
0.0035202
7.89073e-17
2.51694e-17
0.00376841
-8.06873e-17
0.00376841
-2.36002e-17
0.00376841
8.12486e-17
2.37366e-17
0.00402436
-8.50195e-17
0.00402436
-2.06472e-17
0.00402436
8.60752e-17
2.10196e-17
0.00428824
-8.88589e-17
0.00428824
-1.7281e-17
0.00428824
8.86952e-17
1.82483e-17
0.00456019
-9.13615e-17
0.00456019
-1.59247e-17
0.00456019
9.15097e-17
1.74946e-17
0.00484041
-9.47242e-17
0.00484041
-1.37845e-17
0.00484041
9.39604e-17
1.59967e-17
0.00512907
-9.65426e-17
0.00512907
-1.26843e-17
0.00512907
9.72858e-17
1.35044e-17
0.00542633
-9.88169e-17
0.00542633
-1.11104e-17
0.00542633
9.96652e-17
1.18868e-17
0.00573238
-1.00308e-16
0.00573238
-1.062e-17
0.00573238
1.01657e-16
1.19733e-17
0.00604739
-1.0158e-16
0.00604739
-1.0864e-17
0.00604739
1.03196e-16
1.1878e-17
0.00637155
-1.02106e-16
0.00637155
-1.0617e-17
0.00637155
1.03963e-16
1.14911e-17
0.00670503
-1.02265e-16
0.00670503
-1.06695e-17
0.00670503
1.04229e-16
1.16785e-17
0.007048
-1.02182e-16
0.007048
-9.43624e-18
0.007048
1.04611e-16
9.85581e-18
0.00740066
-9.97436e-17
0.00740066
-9.27784e-18
0.00740066
1.02754e-16
9.70506e-18
0.00776317
-9.77592e-17
0.00776317
-8.74766e-18
0.00776317
9.92259e-17
1.01436e-17
0.00813573
-9.8049e-17
0.00813573
-9.33588e-18
0.00813573
1.00474e-16
1.01482e-17
0.00851849
-9.67469e-17
0.00851849
-9.36474e-18
0.00851849
9.88983e-17
1.0343e-17
0.00891165
-9.45818e-17
0.00891165
-6.01692e-18
0.00891165
9.41559e-17
9.37031e-18
0.00931538
-8.83259e-17
0.00931538
-2.94898e-18
0.00931538
8.83397e-17
4.45276e-18
0.00972985
-8.30133e-17
0.00972985
2.23157e-18
0.00972985
8.21736e-17
1.96753e-18
0.0101552
-7.84574e-17
0.0101552
5.40075e-18
0.0101552
7.78297e-17
-2.21483e-18
0.0105917
-7.61722e-17
0.0105917
1.05086e-17
0.0105917
7.29273e-17
-4.91931e-18
0.0110394
-7.28232e-17
0.0110394
1.56724e-17
0.0110394
6.78501e-17
-8.78331e-18
0.0114986
-6.91879e-17
0.0114986
1.93885e-17
0.0114986
6.14898e-17
-1.08718e-17
0.0119693
-6.86311e-17
0.0119693
2.03818e-17
0.0119693
5.82369e-17
-9.56131e-18
0.0124518
-6.61813e-17
0.0124518
1.68821e-17
0.0124518
5.63725e-17
-5.53513e-18
0.0129461
-6.77984e-17
0.0129461
1.29656e-17
0.0129461
6.01589e-17
-4.65022e-18
0.0134525
-7.0398e-17
0.0134525
4.96541e-18
0.0134525
6.27255e-17
2.32987e-18
0.0139711
-7.20849e-17
0.0139711
-1.35788e-18
0.0139711
6.5037e-17
7.23483e-18
0.014502
-6.81482e-17
0.014502
-1.09955e-17
0.014502
6.23238e-17
1.42878e-17
0.0150454
-6.37875e-17
0.0150454
-1.87598e-17
0.0150454
5.60596e-17
2.47445e-17
0.0156013
-5.63945e-17
0.0156013
-2.79214e-17
0.0156013
5.17614e-17
3.03133e-17
0.0161699
-5.10428e-17
0.0161699
-3.68924e-17
0.0161699
4.6208e-17
4.23328e-17
0.0167513
-4.51752e-17
0.0167513
-4.23076e-17
0.0167513
4.21991e-17
4.46058e-17
0.0173456
-3.49852e-17
0.0173456
-4.64675e-17
0.0173456
2.82367e-17
5.25142e-17
0.0179529
-2.67084e-17
0.0179529
-5.87007e-17
0.0179529
2.24501e-17
5.90247e-17
0.0185732
-1.83099e-17
0.0185732
-5.69681e-17
0.0185732
9.66488e-18
6.28173e-17
0.0192066
-7.10087e-18
0.0192066
-6.2088e-17
0.0192066
-2.72867e-18
6.618e-17
0.0198532
5.45434e-18
0.0198532
-6.86092e-17
0.0198532
-1.56227e-17
7.2102e-17
0.020513
1.61425e-17
0.020513
-6.89957e-17
0.020513
-2.3514e-17
7.15657e-17
0.0211859
2.41694e-17
0.0211859
-6.6463e-17
0.0211859
-2.49882e-17
6.3413e-17
0.0218721
3.14267e-17
0.0218721
-5.36724e-17
0.0218721
-2.85892e-17
4.7644e-17
0.0225715
3.78475e-17
0.0225715
-4.4899e-17
0.0225715
-3.76521e-17
3.79011e-17
0.0232841
3.7328e-17
0.0232841
-3.49635e-17
0.0232841
-3.51285e-17
2.90538e-17
0.0240098
4.19141e-17
0.0240098
-3.52721e-17
0.0240098
-4.07116e-17
2.85042e-17
0.0247484
5.34339e-17
0.0247484
-3.14416e-17
0.0247484
-4.103e-17
1.57787e-17
0.0255001
5.54829e-17
0.0255001
-2.11683e-17
0.0255001
-4.83311e-17
8.03272e-18
0.0262645
5.532e-17
0.0262645
-8.14865e-18
0.0262645
-4.78519e-17
-2.80636e-18
0.0270416
4.53287e-17
0.0270416
4.66114e-18
0.0270416
-3.7619e-17
-1.65426e-17
0.0278311
4.44613e-17
0.0278311
1.026e-17
0.0278311
-3.0305e-17
-2.35023e-17
0.0286329
3.91499e-17
0.0286329
1.1988e-17
0.0286329
-2.30911e-17
-2.76048e-17
0.0294467
3.24915e-17
0.0294467
1.33935e-17
0.0294467
-2.07333e-17
-2.88588e-17
0.0302723
2.19594e-17
0.0302723
3.01127e-17
0.0302723
-1.6478e-17
-3.50433e-17
0.0311092
1.74387e-17
0.0311092
3.23646e-17
0.0311092
-1.3982e-17
-3.5581e-17
0.0319573
1.33206e-17
0.0319573
3.41082e-17
0.0319573
-4.48337e-18
-4.28538e-17
0.0328159
-3.72638e-18
0.0328159
2.88046e-17
0.0328159
1.51914e-17
-4.47441e-17
0.0336849
-1.8025e-17
0.0336849
2.59394e-17
0.0336849
2.84644e-17
-3.35617e-17
0.0345635
-3.38239e-17
0.0345635
2.64157e-17
0.0345635
4.18943e-17
-3.07311e-17
0.0354514
-4.9754e-17
0.0354514
3.05818e-17
0.0354514
5.36551e-17
-2.6476e-17
0.0363478
-4.60293e-17
0.0363478
3.95651e-17
0.0363478
4.99287e-17
-4.45184e-17
0.0372522
-4.90461e-17
0.0372522
4.44126e-17
0.0372522
5.50633e-17
-4.39096e-17
0.0381639
-4.3762e-17
0.0381639
5.29512e-17
0.0381639
4.8877e-17
-5.13046e-17
0.0390821
-5.22296e-17
0.0390821
6.43247e-17
0.0390821
4.60546e-17
-5.60138e-17
0.0400059
-3.43004e-17
0.0400059
6.79712e-17
0.0400059
3.26573e-17
-5.87153e-17
0.0409345
-1.45318e-17
0.0409345
6.39901e-17
0.0409345
1.24329e-17
-5.75532e-17
0.0418669
-9.21283e-18
0.0418669
6.4578e-17
0.0418669
3.48174e-18
-5.44495e-17
0.042802
-9.1694e-18
0.042802
5.46542e-17
0.042802
6.43928e-18
-4.67227e-17
0.0437387
-1.6566e-17
0.0437387
4.64027e-17
0.0437387
1.06394e-17
-3.79363e-17
0.0446758
-1.73052e-17
0.0446758
3.66952e-17
0.0446758
2.35766e-17
-4.03193e-17
0.0456119
-3.80957e-17
0.0456119
3.64336e-17
0.0456119
3.1719e-17
-2.64953e-17
0.0465456
-5.41594e-17
0.0465456
3.69235e-17
0.0465456
4.77643e-17
-2.52228e-17
0.0474755
-6.90192e-17
0.0474755
2.57379e-17
0.0474755
5.45244e-17
-1.00445e-17
0.0483998
-7.15117e-17
0.0483998
3.60028e-19
0.0483998
5.51833e-17
1.34934e-17
0.0493169
-8.15458e-17
0.0493169
-2.58394e-17
0.0493169
7.46765e-17
3.09834e-17
0.0502249
-7.20538e-17
0.0502249
-3.468e-17
0.0502249
6.02879e-17
4.84067e-17
0.0511218
-7.32214e-17
0.0511218
-3.37935e-17
0.0511218
5.58403e-17
5.20006e-17
0.0520055
-7.11982e-17
0.0520055
-3.73035e-17
0.0520055
6.03278e-17
4.40583e-17
0.0528737
-4.79831e-17
0.0528737
-3.5865e-17
0.0528737
4.36478e-17
3.99251e-17
0.0537241
-4.18525e-17
0.0537241
-1.93475e-17
0.0537241
3.80742e-17
2.44191e-17
0.054554
-2.67681e-17
0.054554
-8.92483e-18
0.054554
2.85346e-17
5.84591e-18
0.0553607
0.0553607
0.0553607
)
;

boundaryField
{
    inlet
    {
        type            cyclic;
        value           nonuniform List<scalar> 
100
(
-0.0553607
-0.054554
-0.0537241
-0.0528737
-0.0520055
-0.0511218
-0.0502249
-0.0493169
-0.0483998
-0.0474755
-0.0465456
-0.0456119
-0.0446758
-0.0437387
-0.042802
-0.0418669
-0.0409345
-0.0400059
-0.0390821
-0.0381639
-0.0372522
-0.0363478
-0.0354514
-0.0345635
-0.0336849
-0.0328159
-0.0319573
-0.0311092
-0.0302723
-0.0294467
-0.0286329
-0.0278311
-0.0270416
-0.0262645
-0.0255001
-0.0247484
-0.0240098
-0.0232841
-0.0225715
-0.0218721
-0.0211859
-0.020513
-0.0198532
-0.0192066
-0.0185732
-0.0179529
-0.0173456
-0.0167513
-0.0161699
-0.0156013
-0.0150454
-0.014502
-0.0139711
-0.0134525
-0.0129461
-0.0124518
-0.0119693
-0.0114986
-0.0110394
-0.0105917
-0.0101552
-0.00972985
-0.00931538
-0.00891165
-0.00851849
-0.00813573
-0.00776317
-0.00740066
-0.007048
-0.00670503
-0.00637155
-0.00604739
-0.00573238
-0.00542633
-0.00512907
-0.00484041
-0.00456019
-0.00428824
-0.00402436
-0.00376841
-0.0035202
-0.00327957
-0.00304635
-0.00282037
-0.00260148
-0.00238951
-0.0021843
-0.00198571
-0.00179356
-0.00160771
-0.00142802
-0.00125432
-0.00108648
-0.000924357
-0.000767804
-0.000616684
-0.000470862
-0.000330204
-0.000194578
-6.38551e-05
)
;
    }
    outlet
    {
        type            cyclic;
        value           nonuniform List<scalar> 
100
(
0.0553607
0.054554
0.0537241
0.0528737
0.0520055
0.0511218
0.0502249
0.0493169
0.0483998
0.0474755
0.0465456
0.0456119
0.0446758
0.0437387
0.042802
0.0418669
0.0409345
0.0400059
0.0390821
0.0381639
0.0372522
0.0363478
0.0354514
0.0345635
0.0336849
0.0328159
0.0319573
0.0311092
0.0302723
0.0294467
0.0286329
0.0278311
0.0270416
0.0262645
0.0255001
0.0247484
0.0240098
0.0232841
0.0225715
0.0218721
0.0211859
0.020513
0.0198532
0.0192066
0.0185732
0.0179529
0.0173456
0.0167513
0.0161699
0.0156013
0.0150454
0.014502
0.0139711
0.0134525
0.0129461
0.0124518
0.0119693
0.0114986
0.0110394
0.0105917
0.0101552
0.00972985
0.00931538
0.00891165
0.00851849
0.00813573
0.00776317
0.00740066
0.007048
0.00670503
0.00637155
0.00604739
0.00573238
0.00542633
0.00512907
0.00484041
0.00456019
0.00428824
0.00402436
0.00376841
0.0035202
0.00327957
0.00304635
0.00282037
0.00260148
0.00238951
0.0021843
0.00198571
0.00179356
0.00160771
0.00142802
0.00125432
0.00108648
0.000924357
0.000767804
0.000616684
0.000470862
0.000330204
0.000194578
6.38551e-05
)
;
    }
    fixedWalls-bottom
    {
        type            calculated;
        value           uniform 0;
    }
    fixedWalls-top
    {
        type            symmetry;
        value           uniform 0;
    }
    frontAndBack
    {
        type            empty;
        value           nonuniform List<scalar> 0();
    }
}


// ************************************************************************* //
