/*--------------------------------*- C++ -*----------------------------------*\
  =========                 |
  \\      /  F ield         | OpenFOAM: The Open Source CFD Toolbox
   \\    /   O peration     | Website:  https://openfoam.org
    \\  /    A nd           | Version:  10
     \\/     M anipulation  |
\*---------------------------------------------------------------------------*/
FoamFile
{
    format      ascii;
    class       volSymmTensorField;
    location    "10000";
    object      R;
}
// * * * * * * * * * * * * * * * * * * * * * * * * * * * * * * * * * * * * * //

dimensions      [0 2 -2 0 0 0 0];

internalField   nonuniform List<symmTensor> 
400
(
(1.4803e-16 -1.69502e-20 -0 1.4803e-16 -0 1.4803e-16)
(1.4803e-16 -1.69502e-20 -0 1.4803e-16 -0 1.4803e-16)
(1.4803e-16 -1.69502e-20 -0 1.4803e-16 -0 1.4803e-16)
(1.4803e-16 -1.69502e-20 -0 1.4803e-16 -0 1.4803e-16)
(1.4803e-16 -1.02881e-19 -0 1.4803e-16 -0 1.4803e-16)
(1.4803e-16 -1.02881e-19 -0 1.4803e-16 -0 1.4803e-16)
(1.4803e-16 -1.02881e-19 -0 1.4803e-16 -0 1.4803e-16)
(1.4803e-16 -1.02881e-19 -0 1.4803e-16 -0 1.4803e-16)
(1.4803e-16 -3.10503e-19 -0 1.4803e-16 -0 1.4803e-16)
(1.4803e-16 -3.10503e-19 -0 1.4803e-16 -0 1.4803e-16)
(1.4803e-16 -3.10503e-19 -0 1.4803e-16 -0 1.4803e-16)
(1.4803e-16 -3.10503e-19 -0 1.4803e-16 -0 1.4803e-16)
(1.4803e-16 -6.64415e-19 -0 1.4803e-16 -0 1.4803e-16)
(1.4803e-16 -6.64416e-19 -0 1.4803e-16 -0 1.4803e-16)
(1.4803e-16 -6.64416e-19 -0 1.4803e-16 -0 1.4803e-16)
(1.4803e-16 -6.64416e-19 -0 1.4803e-16 -0 1.4803e-16)
(1.4803e-16 -1.17314e-18 -0 1.4803e-16 -0 1.4803e-16)
(1.4803e-16 -1.17315e-18 -0 1.4803e-16 -0 1.4803e-16)
(1.4803e-16 -1.17315e-18 -0 1.4803e-16 -0 1.4803e-16)
(1.4803e-16 -1.17315e-18 -0 1.4803e-16 -0 1.4803e-16)
(1.4803e-16 -1.83512e-18 -0 1.4803e-16 -0 1.4803e-16)
(1.4803e-16 -1.83516e-18 -0 1.4803e-16 -0 1.4803e-16)
(1.4803e-16 -1.83519e-18 -0 1.4803e-16 -0 1.4803e-16)
(1.4803e-16 -1.83518e-18 -0 1.4803e-16 -0 1.4803e-16)
(1.4803e-16 -2.64393e-18 -0 1.4803e-16 -0 1.4803e-16)
(1.4803e-16 -2.64403e-18 -0 1.4803e-16 -0 1.4803e-16)
(1.4803e-16 -2.64409e-18 -0 1.4803e-16 -0 1.4803e-16)
(1.4803e-16 -2.64407e-18 -0 1.4803e-16 -0 1.4803e-16)
(1.4803e-16 -3.59557e-18 -0 1.4803e-16 -0 1.4803e-16)
(1.4803e-16 -3.59578e-18 -0 1.4803e-16 -0 1.4803e-16)
(1.4803e-16 -3.59586e-18 -0 1.4803e-16 -0 1.4803e-16)
(1.4803e-16 -3.59584e-18 -0 1.4803e-16 -0 1.4803e-16)
(1.4803e-16 -4.68989e-18 -0 1.4803e-16 -0 1.4803e-16)
(1.4803e-16 -4.69025e-18 -0 1.4803e-16 -0 1.4803e-16)
(1.4803e-16 -4.69034e-18 -0 1.4803e-16 -0 1.4803e-16)
(1.4803e-16 -4.6903e-18 -0 1.4803e-16 -0 1.4803e-16)
(1.4803e-16 -5.92953e-18 -0 1.4803e-16 -0 1.4803e-16)
(1.4803e-16 -5.93006e-18 -0 1.4803e-16 -0 1.4803e-16)
(1.4803e-16 -5.93015e-18 -0 1.4803e-16 -0 1.4803e-16)
(1.4803e-16 -5.93008e-18 -0 1.4803e-16 -0 1.4803e-16)
(1.4803e-16 -7.31919e-18 -0 1.4803e-16 -0 1.4803e-16)
(1.4803e-16 -7.31989e-18 -0 1.4803e-16 -0 1.4803e-16)
(1.4803e-16 -7.31998e-18 -0 1.4803e-16 -0 1.4803e-16)
(1.4803e-16 -7.31989e-18 -0 1.4803e-16 -0 1.4803e-16)
(1.4803e-16 -8.86271e-18 -0 1.4803e-16 -0 1.4803e-16)
(1.4803e-16 -8.86359e-18 -0 1.4803e-16 -0 1.4803e-16)
(1.4803e-16 -8.86371e-18 -0 1.4803e-16 -0 1.4803e-16)
(1.4803e-16 -8.8636e-18 -0 1.4803e-16 -0 1.4803e-16)
(1.4803e-16 -1.05588e-17 -0 1.4803e-16 -0 1.4803e-16)
(1.4803e-16 -1.05599e-17 -0 1.4803e-16 -0 1.4803e-16)
(1.4803e-16 -1.05601e-17 -0 1.4803e-16 -0 1.4803e-16)
(1.4803e-16 -1.05599e-17 -0 1.4803e-16 -0 1.4803e-16)
(1.4803e-16 -1.24001e-17 -0 1.4803e-16 -0 1.4803e-16)
(1.4803e-16 -1.24015e-17 -0 1.4803e-16 -0 1.4803e-16)
(1.4803e-16 -1.24019e-17 -0 1.4803e-16 -0 1.4803e-16)
(1.4803e-16 -1.24017e-17 -0 1.4803e-16 -0 1.4803e-16)
(1.4803e-16 -1.43752e-17 -0 1.4803e-16 -0 1.4803e-16)
(1.4803e-16 -1.43771e-17 -0 1.4803e-16 -0 1.4803e-16)
(1.4803e-16 -1.43777e-17 -0 1.4803e-16 -0 1.4803e-16)
(1.4803e-16 -1.43775e-17 -0 1.4803e-16 -0 1.4803e-16)
(1.4803e-16 -1.64689e-17 -0 1.4803e-16 -0 1.4803e-16)
(1.4803e-16 -1.64716e-17 -0 1.4803e-16 -0 1.4803e-16)
(1.4803e-16 -1.64727e-17 -0 1.4803e-16 -0 1.4803e-16)
(1.4803e-16 -1.64724e-17 -0 1.4803e-16 -0 1.4803e-16)
(1.4803e-16 -1.86633e-17 -0 1.4803e-16 -0 1.4803e-16)
(1.4803e-16 -1.8667e-17 -0 1.4803e-16 -0 1.4803e-16)
(1.4803e-16 -1.86688e-17 -0 1.4803e-16 -0 1.4803e-16)
(1.4803e-16 -1.86684e-17 -0 1.4803e-16 -0 1.4803e-16)
(1.4803e-16 -2.09372e-17 -0 1.4803e-16 -0 1.4803e-16)
(1.4803e-16 -2.09424e-17 -0 1.4803e-16 -0 1.4803e-16)
(1.4803e-16 -2.09452e-17 -0 1.4803e-16 -0 1.4803e-16)
(1.4803e-16 -2.09448e-17 -0 1.4803e-16 -0 1.4803e-16)
(1.4803e-16 -2.32677e-17 -0 1.4803e-16 -0 1.4803e-16)
(1.4803e-16 -2.32747e-17 -0 1.4803e-16 -0 1.4803e-16)
(1.4803e-16 -2.3279e-17 -0 1.4803e-16 -0 1.4803e-16)
(1.4803e-16 -2.32785e-17 -0 1.4803e-16 -0 1.4803e-16)
(1.4803e-16 -2.56303e-17 -0 1.4803e-16 -0 1.4803e-16)
(1.4803e-16 -2.56396e-17 -0 1.4803e-16 -0 1.4803e-16)
(1.4803e-16 -2.56459e-17 -0 1.4803e-16 -0 1.4803e-16)
(1.4803e-16 -2.56453e-17 -0 1.4803e-16 -0 1.4803e-16)
(1.4803e-16 -2.80002e-17 -0 1.4803e-16 -0 1.4803e-16)
(1.4803e-16 -2.80123e-17 -0 1.4803e-16 -0 1.4803e-16)
(1.4803e-16 -2.80211e-17 -0 1.4803e-16 -0 1.4803e-16)
(1.4803e-16 -2.80206e-17 -0 1.4803e-16 -0 1.4803e-16)
(1.4803e-16 -3.03534e-17 -0 1.4803e-16 -0 1.4803e-16)
(1.4803e-16 -3.03686e-17 -0 1.4803e-16 -0 1.4803e-16)
(1.4803e-16 -3.03807e-17 -0 1.4803e-16 -0 1.4803e-16)
(1.4803e-16 -3.03805e-17 -0 1.4803e-16 -0 1.4803e-16)
(1.4803e-16 -3.26673e-17 -0 1.4803e-16 -0 1.4803e-16)
(1.4803e-16 -3.2686e-17 -0 1.4803e-16 -0 1.4803e-16)
(1.4803e-16 -3.27021e-17 -0 1.4803e-16 -0 1.4803e-16)
(1.4803e-16 -3.27027e-17 -0 1.4803e-16 -0 1.4803e-16)
(1.4803e-16 -3.4922e-17 -0 1.4803e-16 -0 1.4803e-16)
(1.4803e-16 -3.49442e-17 -0 1.4803e-16 -0 1.4803e-16)
(1.4803e-16 -3.49652e-17 -0 1.4803e-16 -0 1.4803e-16)
(1.4803e-16 -3.49668e-17 -0 1.4803e-16 -0 1.4803e-16)
(1.4803e-16 -3.71005e-17 -0 1.4803e-16 -0 1.4803e-16)
(1.4803e-16 -3.71262e-17 -0 1.4803e-16 -0 1.4803e-16)
(1.4803e-16 -3.71525e-17 -0 1.4803e-16 -0 1.4803e-16)
(1.4803e-16 -3.71558e-17 -0 1.4803e-16 -0 1.4803e-16)
(1.4803e-16 -3.91892e-17 -0 1.4803e-16 -0 1.4803e-16)
(1.4803e-16 -3.9218e-17 -0 1.4803e-16 -0 1.4803e-16)
(1.4803e-16 -3.92502e-17 -0 1.4803e-16 -0 1.4803e-16)
(1.4803e-16 -3.92561e-17 -0 1.4803e-16 -0 1.4803e-16)
(1.4803e-16 -4.1178e-17 -0 1.4803e-16 -0 1.4803e-16)
(1.4803e-16 -4.12094e-17 -0 1.4803e-16 -0 1.4803e-16)
(1.4803e-16 -4.12476e-17 -0 1.4803e-16 -0 1.4803e-16)
(1.4803e-16 -4.12574e-17 -0 1.4803e-16 -0 1.4803e-16)
(1.4803e-16 -4.30602e-17 -0 1.4803e-16 -0 1.4803e-16)
(1.4803e-16 -4.30933e-17 -0 1.4803e-16 -0 1.4803e-16)
(1.4803e-16 -4.31374e-17 -0 1.4803e-16 -0 1.4803e-16)
(1.4803e-16 -4.31527e-17 -0 1.4803e-16 -0 1.4803e-16)
(1.4803e-16 -4.48322e-17 -0 1.4803e-16 -0 1.4803e-16)
(1.4803e-16 -4.48658e-17 -0 1.4803e-16 -0 1.4803e-16)
(1.4803e-16 -4.49155e-17 -0 1.4803e-16 -0 1.4803e-16)
(1.4803e-16 -4.49382e-17 -0 1.4803e-16 -0 1.4803e-16)
(1.4803e-16 -4.64931e-17 -0 1.4803e-16 -0 1.4803e-16)
(1.4803e-16 -4.65261e-17 -0 1.4803e-16 -0 1.4803e-16)
(1.4803e-16 -4.65806e-17 -0 1.4803e-16 -0 1.4803e-16)
(1.4803e-16 -4.66127e-17 -0 1.4803e-16 -0 1.4803e-16)
(1.4803e-16 -4.80441e-17 -0 1.4803e-16 -0 1.4803e-16)
(1.4803e-16 -4.80758e-17 -0 1.4803e-16 -0 1.4803e-16)
(1.4803e-16 -4.8134e-17 -0 1.4803e-16 -0 1.4803e-16)
(1.4803e-16 -4.81774e-17 -0 1.4803e-16 -0 1.4803e-16)
(1.4803e-16 -4.94884e-17 -0 1.4803e-16 -0 1.4803e-16)
(1.4803e-16 -4.95183e-17 -0 1.4803e-16 -0 1.4803e-16)
(1.4803e-16 -4.95788e-17 -0 1.4803e-16 -0 1.4803e-16)
(1.4803e-16 -4.96353e-17 -0 1.4803e-16 -0 1.4803e-16)
(1.4803e-16 -5.08305e-17 -0 1.4803e-16 -0 1.4803e-16)
(1.4803e-16 -5.08587e-17 -0 1.4803e-16 -0 1.4803e-16)
(1.4803e-16 -5.09195e-17 -0 1.4803e-16 -0 1.4803e-16)
(1.4803e-16 -5.09907e-17 -0 1.4803e-16 -0 1.4803e-16)
(1.4803e-16 -5.20759e-17 -0 1.4803e-16 -0 1.4803e-16)
(1.4803e-16 -5.21022e-17 -0 1.4803e-16 -0 1.4803e-16)
(1.4803e-16 -5.21623e-17 -0 1.4803e-16 -0 1.4803e-16)
(1.4803e-16 -5.22488e-17 -0 1.4803e-16 -0 1.4803e-16)
(1.4803e-16 -5.32308e-17 -0 1.4803e-16 -0 1.4803e-16)
(1.4803e-16 -5.32553e-17 -0 1.4803e-16 -0 1.4803e-16)
(1.4803e-16 -5.33139e-17 -0 1.4803e-16 -0 1.4803e-16)
(1.4803e-16 -5.34158e-17 -0 1.4803e-16 -0 1.4803e-16)
(1.4803e-16 -5.43017e-17 -0 1.4803e-16 -0 1.4803e-16)
(1.4803e-16 -5.43245e-17 -0 1.4803e-16 -0 1.4803e-16)
(1.4803e-16 -5.43817e-17 -0 1.4803e-16 -0 1.4803e-16)
(1.4803e-16 -5.44981e-17 -0 1.4803e-16 -0 1.4803e-16)
(1.4803e-16 -5.52954e-17 -0 1.4803e-16 -0 1.4803e-16)
(1.4803e-16 -5.53169e-17 -0 1.4803e-16 -0 1.4803e-16)
(1.4803e-16 -5.53734e-17 -0 1.4803e-16 -0 1.4803e-16)
(1.4803e-16 -5.55022e-17 -0 1.4803e-16 -0 1.4803e-16)
(1.48233e-16 -5.62958e-17 -0 1.48233e-16 -0 1.48233e-16)
(1.48165e-16 -5.62905e-17 -0 1.48165e-16 -0 1.48165e-16)
(1.48179e-16 -5.63522e-17 -0 1.48179e-16 -0 1.48179e-16)
(1.48311e-16 -5.65426e-17 -0 1.48311e-16 -0 1.48311e-16)
(1.49921e-16 -5.78078e-17 -0 1.49921e-16 -0 1.49921e-16)
(1.49821e-16 -5.7789e-17 -0 1.49821e-16 -0 1.49821e-16)
(1.49837e-16 -5.78519e-17 -0 1.49837e-16 -0 1.49837e-16)
(1.50026e-16 -5.80772e-17 -0 1.50026e-16 -0 1.50026e-16)
(1.52392e-16 -5.95877e-17 -0 1.52392e-16 -0 1.52392e-16)
(1.52261e-16 -5.95554e-17 -0 1.52261e-16 -0 1.52261e-16)
(1.52276e-16 -5.96189e-17 -0 1.52276e-16 -0 1.52276e-16)
(1.52515e-16 -5.98775e-17 -0 1.52515e-16 -0 1.52515e-16)
(1.55611e-16 -6.1638e-17 -0 1.55611e-16 -0 1.55611e-16)
(1.55449e-16 -6.15927e-17 -0 1.55449e-16 -0 1.55449e-16)
(1.55461e-16 -6.16564e-17 -0 1.55461e-16 -0 1.55461e-16)
(1.55744e-16 -6.1947e-17 -0 1.55744e-16 -0 1.55744e-16)
(1.59545e-16 -6.39615e-17 -0 1.59545e-16 -0 1.59545e-16)
(1.59354e-16 -6.39038e-17 -0 1.59354e-16 -0 1.59354e-16)
(1.59361e-16 -6.39672e-17 -0 1.59361e-16 -0 1.59361e-16)
(1.59684e-16 -6.42892e-17 -0 1.59684e-16 -0 1.59684e-16)
(1.64166e-16 -6.65607e-17 -0 1.64166e-16 -0 1.64166e-16)
(1.63948e-16 -6.64914e-17 -0 1.63948e-16 -0 1.63948e-16)
(1.63949e-16 -6.65542e-17 -0 1.63949e-16 -0 1.63949e-16)
(1.64307e-16 -6.69072e-17 -0 1.64307e-16 -0 1.64307e-16)
(1.69447e-16 -6.94382e-17 -0 1.69447e-16 -0 1.69447e-16)
(1.69203e-16 -6.93582e-17 -0 1.69203e-16 -0 1.69203e-16)
(1.69198e-16 -6.942e-17 -0 1.69198e-16 -0 1.69198e-16)
(1.69587e-16 -6.98044e-17 -0 1.69587e-16 -0 1.69587e-16)
(1.7536e-16 -7.25967e-17 -0 1.7536e-16 -0 1.7536e-16)
(1.75094e-16 -7.25071e-17 -0 1.75094e-16 -0 1.75094e-16)
(1.7508e-16 -7.25676e-17 -0 1.7508e-16 -0 1.7508e-16)
(1.75499e-16 -7.29843e-17 -0 1.75499e-16 -0 1.75499e-16)
(1.81878e-16 -7.60395e-17 -0 1.81878e-16 -0 1.81878e-16)
(1.81592e-16 -7.59411e-17 -0 1.81592e-16 -0 1.81592e-16)
(1.81569e-16 -7.60007e-17 -0 1.81569e-16 -0 1.81569e-16)
(1.82016e-16 -7.64506e-17 -0 1.82016e-16 -0 1.82016e-16)
(1.88971e-16 -7.97704e-17 -0 1.88971e-16 -0 1.88971e-16)
(1.88667e-16 -7.96638e-17 -0 1.88667e-16 -0 1.88667e-16)
(1.88635e-16 -7.97237e-17 -0 1.88635e-16 -0 1.88635e-16)
(1.89108e-16 -8.02078e-17 -0 1.89108e-16 -0 1.89108e-16)
(1.96606e-16 -8.37939e-17 -0 1.96606e-16 -0 1.96606e-16)
(1.96284e-16 -8.3679e-17 -0 1.96284e-16 -0 1.96284e-16)
(1.96244e-16 -8.37414e-17 -0 1.96244e-16 -0 1.96244e-16)
(1.96743e-16 -8.42609e-17 -0 1.96743e-16 -0 1.96743e-16)
(2.04742e-16 -8.81127e-17 -0 2.04742e-16 -0 2.04742e-16)
(2.04403e-16 -8.79881e-17 -0 2.04403e-16 -0 2.04403e-16)
(2.04357e-16 -8.80574e-17 -0 2.04357e-16 -0 2.04357e-16)
(2.0488e-16 -8.86132e-17 -0 2.0488e-16 -0 2.0488e-16)
(2.13333e-16 -9.2724e-17 -0 2.13333e-16 -0 2.13333e-16)
(2.12977e-16 -9.2587e-17 -0 2.12977e-16 -0 2.12977e-16)
(2.12926e-16 -9.26689e-17 -0 2.12926e-16 -0 2.12926e-16)
(2.13473e-16 -9.32628e-17 -0 2.13473e-16 -0 2.13473e-16)
(2.22321e-16 -9.76153e-17 -0 2.22321e-16 -0 2.22321e-16)
(2.21947e-16 -9.74625e-17 -0 2.21947e-16 -0 2.21947e-16)
(2.21893e-16 -9.75637e-17 -0 2.21893e-16 -0 2.21893e-16)
(2.22464e-16 -9.81982e-17 -0 2.22464e-16 -0 2.22464e-16)
(2.31637e-16 -1.02762e-16 -0 2.31637e-16 -0 2.31637e-16)
(2.31245e-16 -1.02593e-16 -0 2.31245e-16 -0 2.31245e-16)
(2.3119e-16 -1.02717e-16 -0 2.3119e-16 -0 2.3119e-16)
(2.31785e-16 -1.03397e-16 -0 2.31785e-16 -0 2.31785e-16)
(2.41201e-16 -1.08128e-16 -0 2.41201e-16 -0 2.41201e-16)
(2.4079e-16 -1.07944e-16 -0 2.4079e-16 -0 2.4079e-16)
(2.40735e-16 -1.08093e-16 -0 2.40735e-16 -0 2.40735e-16)
(2.41355e-16 -1.08823e-16 -0 2.41355e-16 -0 2.41355e-16)
(2.50917e-16 -1.1366e-16 -0 2.50917e-16 -0 2.50917e-16)
(2.5049e-16 -1.13474e-16 -0 2.5049e-16 -0 2.5049e-16)
(2.50434e-16 -1.1364e-16 -0 2.50434e-16 -0 2.50434e-16)
(2.51078e-16 -1.14424e-16 -0 2.51078e-16 -0 2.51078e-16)
(2.60682e-16 -1.19299e-16 -0 2.60682e-16 -0 2.60682e-16)
(2.60238e-16 -1.19104e-16 -0 2.60238e-16 -0 2.60238e-16)
(2.60181e-16 -1.19285e-16 -0 2.60181e-16 -0 2.60181e-16)
(2.60849e-16 -1.20127e-16 -0 2.60849e-16 -0 2.60849e-16)
(2.70377e-16 -1.24958e-16 -0 2.70377e-16 -0 2.70377e-16)
(2.69918e-16 -1.24751e-16 -0 2.69918e-16 -0 2.69918e-16)
(2.69859e-16 -1.24947e-16 -0 2.69859e-16 -0 2.69859e-16)
(2.7055e-16 -1.25848e-16 -0 2.7055e-16 -0 2.7055e-16)
(2.79877e-16 -1.30528e-16 -0 2.79877e-16 -0 2.79877e-16)
(2.79405e-16 -1.30327e-16 -0 2.79405e-16 -0 2.79405e-16)
(2.79345e-16 -1.30535e-16 -0 2.79345e-16 -0 2.79345e-16)
(2.80057e-16 -1.31494e-16 -0 2.80057e-16 -0 2.80057e-16)
(2.89055e-16 -1.35938e-16 -0 2.89055e-16 -0 2.89055e-16)
(2.8857e-16 -1.35734e-16 -0 2.8857e-16 -0 2.8857e-16)
(2.88509e-16 -1.35957e-16 -0 2.88509e-16 -0 2.88509e-16)
(2.8924e-16 -1.36977e-16 -0 2.8924e-16 -0 2.8924e-16)
(2.97778e-16 -1.41098e-16 -0 2.97778e-16 -0 2.97778e-16)
(2.97283e-16 -1.40887e-16 -0 2.97283e-16 -0 2.97283e-16)
(2.97221e-16 -1.41126e-16 -0 2.97221e-16 -0 2.97221e-16)
(2.97968e-16 -1.42206e-16 -0 2.97968e-16 -0 2.97968e-16)
(3.05918e-16 -1.45924e-16 -0 3.05918e-16 -0 3.05918e-16)
(3.05415e-16 -1.45705e-16 -0 3.05415e-16 -0 3.05415e-16)
(3.05351e-16 -1.4596e-16 -0 3.05351e-16 -0 3.05351e-16)
(3.06111e-16 -1.47095e-16 -0 3.06111e-16 -0 3.06111e-16)
(3.13349e-16 -1.50335e-16 -0 3.13349e-16 -0 3.13349e-16)
(3.12839e-16 -1.50109e-16 -0 3.12839e-16 -0 3.12839e-16)
(3.12775e-16 -1.50382e-16 -0 3.12775e-16 -0 3.12775e-16)
(3.13543e-16 -1.51565e-16 -0 3.13543e-16 -0 3.13543e-16)
(3.1995e-16 -1.54259e-16 -0 3.1995e-16 -0 3.1995e-16)
(3.19437e-16 -1.54027e-16 -0 3.19437e-16 -0 3.19437e-16)
(3.19372e-16 -1.54318e-16 -0 3.19372e-16 -0 3.19372e-16)
(3.20144e-16 -1.55539e-16 -0 3.20144e-16 -0 3.20144e-16)
(3.2561e-16 -1.57627e-16 -0 3.2561e-16 -0 3.2561e-16)
(3.25097e-16 -1.57392e-16 -0 3.25097e-16 -0 3.25097e-16)
(3.25031e-16 -1.57702e-16 -0 3.25031e-16 -0 3.25031e-16)
(3.25802e-16 -1.58949e-16 -0 3.25802e-16 -0 3.25802e-16)
(3.30228e-16 -1.6038e-16 -0 3.30228e-16 -0 3.30228e-16)
(3.29719e-16 -1.60142e-16 -0 3.29719e-16 -0 3.29719e-16)
(3.29651e-16 -1.60471e-16 -0 3.29651e-16 -0 3.29651e-16)
(3.30416e-16 -1.61733e-16 -0 3.30416e-16 -0 3.30416e-16)
(3.33716e-16 -1.62469e-16 -0 3.33716e-16 -0 3.33716e-16)
(3.33212e-16 -1.62219e-16 -0 3.33212e-16 -0 3.33212e-16)
(3.33142e-16 -1.62565e-16 -0 3.33142e-16 -0 3.33142e-16)
(3.33898e-16 -1.63839e-16 -0 3.33898e-16 -0 3.33898e-16)
(3.35999e-16 -1.63843e-16 -0 3.35999e-16 -0 3.35999e-16)
(3.35505e-16 -1.63572e-16 -0 3.35505e-16 -0 3.35505e-16)
(3.35431e-16 -1.63934e-16 -0 3.35431e-16 -0 3.35431e-16)
(3.36175e-16 -1.65223e-16 -0 3.36175e-16 -0 3.36175e-16)
(3.3702e-16 -1.64434e-16 -0 3.3702e-16 -0 3.3702e-16)
(3.36539e-16 -1.6418e-16 -0 3.36539e-16 -0 3.36539e-16)
(3.3646e-16 -1.64535e-16 -0 3.3646e-16 -0 3.3646e-16)
(3.3719e-16 -1.65845e-16 -0 3.3719e-16 -0 3.3719e-16)
(3.36742e-16 -1.64279e-16 -0 3.36742e-16 -0 3.36742e-16)
(3.36276e-16 -1.64001e-16 -0 3.36276e-16 -0 3.36276e-16)
(3.3619e-16 -1.64357e-16 -0 3.3619e-16 -0 3.3619e-16)
(3.36905e-16 -1.65693e-16 -0 3.36905e-16 -0 3.36905e-16)
(3.35144e-16 -1.63359e-16 -0 3.35144e-16 -0 3.35144e-16)
(3.34697e-16 -1.63032e-16 -0 3.34697e-16 -0 3.34697e-16)
(3.34603e-16 -1.63401e-16 -0 3.34603e-16 -0 3.34603e-16)
(3.35299e-16 -1.64746e-16 -0 3.35299e-16 -0 3.35299e-16)
(3.32223e-16 -1.61618e-16 -0 3.32223e-16 -0 3.32223e-16)
(3.31804e-16 -1.61295e-16 -0 3.31804e-16 -0 3.31804e-16)
(3.31699e-16 -1.6166e-16 -0 3.31699e-16 -0 3.31699e-16)
(3.32373e-16 -1.62998e-16 -0 3.32373e-16 -0 3.32373e-16)
(3.27999e-16 -1.59074e-16 -0 3.27999e-16 -0 3.27999e-16)
(3.27618e-16 -1.58806e-16 -0 3.27618e-16 -0 3.27618e-16)
(3.27497e-16 -1.59136e-16 -0 3.27497e-16 -0 3.27497e-16)
(3.28148e-16 -1.60464e-16 -0 3.28148e-16 -0 3.28148e-16)
(3.22513e-16 -1.55753e-16 -0 3.22513e-16 -0 3.22513e-16)
(3.22181e-16 -1.55612e-16 -0 3.22181e-16 -0 3.22181e-16)
(3.2204e-16 -1.55845e-16 -0 3.2204e-16 -0 3.2204e-16)
(3.22666e-16 -1.57172e-16 -0 3.22666e-16 -0 3.22666e-16)
(3.1583e-16 -1.51698e-16 -0 3.1583e-16 -0 3.1583e-16)
(3.15554e-16 -1.51807e-16 -0 3.15554e-16 -0 3.15554e-16)
(3.15389e-16 -1.5181e-16 -0 3.15389e-16 -0 3.15389e-16)
(3.1599e-16 -1.53165e-16 -0 3.1599e-16 -0 3.1599e-16)
(3.08035e-16 -1.47018e-16 -0 3.08035e-16 -0 3.08035e-16)
(3.07806e-16 -1.47167e-16 -0 3.07806e-16 -0 3.07806e-16)
(3.07629e-16 -1.4716e-16 -0 3.07629e-16 -0 3.07629e-16)
(3.08205e-16 -1.4849e-16 -0 3.08205e-16 -0 3.08205e-16)
(2.99233e-16 -1.41759e-16 -0 2.99233e-16 -0 2.99233e-16)
(2.99039e-16 -1.41876e-16 -0 2.99039e-16 -0 2.99039e-16)
(2.98861e-16 -1.41916e-16 -0 2.98861e-16 -0 2.98861e-16)
(2.99411e-16 -1.43211e-16 -0 2.99411e-16 -0 2.99411e-16)
(2.89541e-16 -1.35974e-16 -0 2.89541e-16 -0 2.89541e-16)
(2.89376e-16 -1.35976e-16 -0 2.89376e-16 -0 2.89376e-16)
(2.89201e-16 -1.3615e-16 -0 2.89201e-16 -0 2.89201e-16)
(2.89728e-16 -1.37405e-16 -0 2.89728e-16 -0 2.89728e-16)
(2.79089e-16 -1.29709e-16 -0 2.79089e-16 -0 2.79089e-16)
(2.78964e-16 -1.29861e-16 -0 2.78964e-16 -0 2.78964e-16)
(2.7878e-16 -1.29806e-16 -0 2.7878e-16 -0 2.7878e-16)
(2.7929e-16 -1.31163e-16 -0 2.7929e-16 -0 2.7929e-16)
(2.68026e-16 -1.22935e-16 -0 2.68026e-16 -0 2.68026e-16)
(2.67941e-16 -1.23308e-16 -0 2.67941e-16 -0 2.67941e-16)
(2.67755e-16 -1.23124e-16 -0 2.67755e-16 -0 2.67755e-16)
(2.68245e-16 -1.24546e-16 -0 2.68245e-16 -0 2.68245e-16)
(2.56524e-16 -1.16031e-16 -0 2.56524e-16 -0 2.56524e-16)
(2.56462e-16 -1.16418e-16 -0 2.56462e-16 -0 2.56462e-16)
(2.5629e-16 -1.16262e-16 -0 2.5629e-16 -0 2.5629e-16)
(2.5675e-16 -1.1761e-16 -0 2.5675e-16 -0 2.5675e-16)
(2.44751e-16 -1.08961e-16 -0 2.44751e-16 -0 2.44751e-16)
(2.44702e-16 -1.09351e-16 -0 2.44702e-16 -0 2.44702e-16)
(2.44548e-16 -1.09217e-16 -0 2.44548e-16 -0 2.44548e-16)
(2.44976e-16 -1.10489e-16 -0 2.44976e-16 -0 2.44976e-16)
(2.32878e-16 -1.01817e-16 -0 2.32878e-16 -0 2.32878e-16)
(2.32839e-16 -1.02204e-16 -0 2.32839e-16 -0 2.32839e-16)
(2.32702e-16 -1.02083e-16 -0 2.32702e-16 -0 2.32702e-16)
(2.33096e-16 -1.03282e-16 -0 2.33096e-16 -0 2.33096e-16)
(2.21085e-16 -9.46937e-17 -0 2.21085e-16 -0 2.21085e-16)
(2.21051e-16 -9.50692e-17 -0 2.21051e-16 -0 2.21051e-16)
(2.20928e-16 -9.49567e-17 -0 2.20928e-16 -0 2.20928e-16)
(2.21291e-16 -9.60853e-17 -0 2.21291e-16 -0 2.21291e-16)
(2.09549e-16 -8.76798e-17 -0 2.09549e-16 -0 2.09549e-16)
(2.09519e-16 -8.80401e-17 -0 2.09519e-16 -0 2.09519e-16)
(2.09409e-16 -8.79323e-17 -0 2.09409e-16 -0 2.09409e-16)
(2.09741e-16 -8.89917e-17 -0 2.09741e-16 -0 2.09741e-16)
(1.98451e-16 -8.08603e-17 -0 1.98451e-16 -0 1.98451e-16)
(1.98424e-16 -8.1202e-17 -0 1.98424e-16 -0 1.98424e-16)
(1.98324e-16 -8.10957e-17 -0 1.98324e-16 -0 1.98324e-16)
(1.98627e-16 -8.20883e-17 -0 1.98627e-16 -0 1.98627e-16)
(1.87969e-16 -7.43123e-17 -0 1.87969e-16 -0 1.87969e-16)
(1.87943e-16 -7.46319e-17 -0 1.87943e-16 -0 1.87943e-16)
(1.87853e-16 -7.45251e-17 -0 1.87853e-16 -0 1.87853e-16)
(1.88128e-16 -7.54541e-17 -0 1.88128e-16 -0 1.88128e-16)
(1.78281e-16 -6.81031e-17 -0 1.78281e-16 -0 1.78281e-16)
(1.78255e-16 -6.83956e-17 -0 1.78255e-16 -0 1.78255e-16)
(1.78175e-16 -6.82885e-17 -0 1.78175e-16 -0 1.78175e-16)
(1.78421e-16 -6.9157e-17 -0 1.78421e-16 -0 1.78421e-16)
(1.69561e-16 -6.22884e-17 -0 1.69561e-16 -0 1.69561e-16)
(1.69533e-16 -6.25453e-17 -0 1.69533e-16 -0 1.69533e-16)
(1.69466e-16 -6.24444e-17 -0 1.69466e-16 -0 1.69466e-16)
(1.69682e-16 -6.32508e-17 -0 1.69682e-16 -0 1.69682e-16)
(1.61986e-16 -5.69122e-17 -0 1.61986e-16 -0 1.61986e-16)
(1.61951e-16 -5.71165e-17 -0 1.61951e-16 -0 1.61951e-16)
(1.61905e-16 -5.70464e-17 -0 1.61905e-16 -0 1.61905e-16)
(1.62085e-16 -5.77711e-17 -0 1.62085e-16 -0 1.62085e-16)
(1.55732e-16 -5.20093e-17 -0 1.55732e-16 -0 1.55732e-16)
(1.55687e-16 -5.21207e-17 -0 1.55687e-16 -0 1.55687e-16)
(1.55674e-16 -5.2157e-17 -0 1.55674e-16 -0 1.55674e-16)
(1.55804e-16 -5.273e-17 -0 1.55804e-16 -0 1.55804e-16)
(1.50981e-16 -4.7619e-17 -0 1.50981e-16 -0 1.50981e-16)
(1.50932e-16 -4.75231e-17 -0 1.50932e-16 -0 1.50932e-16)
(1.50952e-16 -4.78003e-17 -0 1.50952e-16 -0 1.50952e-16)
(1.51015e-16 -4.81262e-17 -0 1.51015e-16 -0 1.51015e-16)
(1.4803e-16 -4.35895e-17 -0 1.4803e-16 -0 1.4803e-16)
(1.4803e-16 -4.35087e-17 -0 1.4803e-16 -0 1.4803e-16)
(1.4803e-16 -4.37845e-17 -0 1.4803e-16 -0 1.4803e-16)
(1.4803e-16 -4.40237e-17 -0 1.4803e-16 -0 1.4803e-16)
(1.4803e-16 -4.0214e-17 -0 1.4803e-16 -0 1.4803e-16)
(1.4803e-16 -4.01332e-17 -0 1.4803e-16 -0 1.4803e-16)
(1.4803e-16 -4.03964e-17 -0 1.4803e-16 -0 1.4803e-16)
(1.4803e-16 -4.06125e-17 -0 1.4803e-16 -0 1.4803e-16)
(1.4803e-16 -3.65477e-17 -0 1.4803e-16 -0 1.4803e-16)
(1.4803e-16 -3.64745e-17 -0 1.4803e-16 -0 1.4803e-16)
(1.4803e-16 -3.67097e-17 -0 1.4803e-16 -0 1.4803e-16)
(1.4803e-16 -3.69202e-17 -0 1.4803e-16 -0 1.4803e-16)
(1.4803e-16 -3.25886e-17 -0 1.4803e-16 -0 1.4803e-16)
(1.4803e-16 -3.25242e-17 -0 1.4803e-16 -0 1.4803e-16)
(1.4803e-16 -3.27107e-17 -0 1.4803e-16 -0 1.4803e-16)
(1.4803e-16 -3.29378e-17 -0 1.4803e-16 -0 1.4803e-16)
(1.4803e-16 -2.83302e-17 -0 1.4803e-16 -0 1.4803e-16)
(1.4803e-16 -2.82927e-17 -0 1.4803e-16 -0 1.4803e-16)
(1.4803e-16 -2.84068e-17 -0 1.4803e-16 -0 1.4803e-16)
(1.4803e-16 -2.86514e-17 -0 1.4803e-16 -0 1.4803e-16)
(1.4803e-16 -2.37713e-17 -0 1.4803e-16 -0 1.4803e-16)
(1.4803e-16 -2.38306e-17 -0 1.4803e-16 -0 1.4803e-16)
(1.4803e-16 -2.38472e-17 -0 1.4803e-16 -0 1.4803e-16)
(1.4803e-16 -2.40454e-17 -0 1.4803e-16 -0 1.4803e-16)
(1.4803e-16 -1.89299e-17 -0 1.4803e-16 -0 1.4803e-16)
(1.4803e-16 -1.89903e-17 -0 1.4803e-16 -0 1.4803e-16)
(1.4803e-16 -1.89966e-17 -0 1.4803e-16 -0 1.4803e-16)
(1.4803e-16 -1.9152e-17 -0 1.4803e-16 -0 1.4803e-16)
(1.4803e-16 -1.38123e-17 -0 1.4803e-16 -0 1.4803e-16)
(1.4803e-16 -1.38569e-17 -0 1.4803e-16 -0 1.4803e-16)
(1.4803e-16 -1.38684e-17 -0 1.4803e-16 -0 1.4803e-16)
(1.4803e-16 -1.39767e-17 -0 1.4803e-16 -0 1.4803e-16)
(1.4803e-16 -8.44008e-18 -0 1.4803e-16 -0 1.4803e-16)
(1.4803e-16 -8.46137e-18 -0 1.4803e-16 -0 1.4803e-16)
(1.4803e-16 -8.48318e-18 -0 1.4803e-16 -0 1.4803e-16)
(1.4803e-16 -8.54287e-18 -0 1.4803e-16 -0 1.4803e-16)
(1.4803e-16 -2.84992e-18 -0 1.4803e-16 -0 1.4803e-16)
(1.4803e-16 -2.85021e-18 -0 1.4803e-16 -0 1.4803e-16)
(1.4803e-16 -2.86856e-18 -0 1.4803e-16 -0 1.4803e-16)
(1.4803e-16 -2.88741e-18 -0 1.4803e-16 -0 1.4803e-16)
)
;

boundaryField
{
    inlet
    {
        type            cyclic;
    }
    outlet
    {
        type            cyclic;
    }
    fixedWalls-bottom
    {
        type            kqRWallFunction;
        value           uniform (1.4803e-16 -0 -0 1.4803e-16 -0 1.4803e-16);
    }
    fixedWalls-top
    {
        type            symmetry;
    }
    frontAndBack
    {
        type            empty;
    }
}


// ************************************************************************* //
