/*--------------------------------*- C++ -*----------------------------------*\
  =========                 |
  \\      /  F ield         | OpenFOAM: The Open Source CFD Toolbox
   \\    /   O peration     | Website:  https://openfoam.org
    \\  /    A nd           | Version:  10
     \\/     M anipulation  |
\*---------------------------------------------------------------------------*/
FoamFile
{
    format      ascii;
    class       volVectorField;
    location    "10000";
    object      U;
}
// * * * * * * * * * * * * * * * * * * * * * * * * * * * * * * * * * * * * * //

dimensions      [0 1 -1 0 0 0 0];

internalField   nonuniform List<vector> 
400
(
(0.0069201 -2.11761e-18 0)
(0.0069201 4.37304e-20 0)
(0.0069201 1.32316e-19 0)
(0.0069201 -3.56572e-20 0)
(0.0207936 1.27973e-18 0)
(0.0207936 -2.15259e-19 0)
(0.0207936 4.39759e-19 0)
(0.0207936 1.67998e-19 0)
(0.0347966 -1.32431e-18 0)
(0.0347966 -6.5754e-19 0)
(0.0347966 1.53757e-18 0)
(0.0347966 5.86383e-19 0)
(0.048929 -2.68607e-18 0)
(0.048929 -1.45172e-18 0)
(0.048929 3.11708e-18 0)
(0.048929 1.36295e-18 0)
(0.0631908 -4.70623e-18 0)
(0.0631908 -2.64208e-18 0)
(0.0631908 5.31424e-18 0)
(0.0631908 2.35345e-18 0)
(0.0775818 -7.29931e-18 0)
(0.0775818 -4.21733e-18 0)
(0.0775818 8.07626e-18 0)
(0.0775818 3.66024e-18 0)
(0.0921017 -1.07101e-17 0)
(0.0921017 -6.434e-18 0)
(0.0921017 1.1585e-17 0)
(0.0921017 5.78751e-18 0)
(0.10675 -1.47535e-17 0)
(0.10675 -9.14772e-18 0)
(0.10675 1.55324e-17 0)
(0.10675 8.60999e-18 0)
(0.121527 -1.90226e-17 0)
(0.121527 -1.21507e-17 0)
(0.121527 1.98403e-17 0)
(0.121527 1.15327e-17 0)
(0.136432 -2.34549e-17 0)
(0.136432 -1.52534e-17 0)
(0.136432 2.46348e-17 0)
(0.136432 1.43134e-17 0)
(0.151464 -2.8233e-17 0)
(0.151464 -1.81582e-17 0)
(0.151464 2.95409e-17 0)
(0.151464 1.71329e-17 0)
(0.166624 -3.35117e-17 0)
(0.166624 -2.08974e-17 0)
(0.166624 3.46866e-17 0)
(0.166624 2.0026e-17 0)
(0.181909 -3.88913e-17 0)
(0.181909 -2.39732e-17 0)
(0.181909 4.02793e-17 0)
(0.181909 2.31841e-17 0)
(0.19732 -4.47775e-17 0)
(0.19732 -2.67569e-17 0)
(0.19732 4.61949e-17 0)
(0.19732 2.59739e-17 0)
(0.212856 -5.08784e-17 0)
(0.212856 -2.87136e-17 0)
(0.212856 5.21895e-17 0)
(0.212856 2.77538e-17 0)
(0.228516 -5.6668e-17 0)
(0.228516 -2.98599e-17 0)
(0.228516 5.82065e-17 0)
(0.228516 2.86628e-17 0)
(0.244298 -6.22886e-17 0)
(0.244298 -3.00802e-17 0)
(0.244298 6.35427e-17 0)
(0.244298 2.89295e-17 0)
(0.260203 -6.71999e-17 0)
(0.260203 -2.99133e-17 0)
(0.260203 6.84042e-17 0)
(0.260203 2.88097e-17 0)
(0.276228 -7.10445e-17 0)
(0.276228 -2.89146e-17 0)
(0.276228 7.26321e-17 0)
(0.276228 2.78082e-17 0)
(0.292373 -7.49294e-17 0)
(0.292373 -2.7609e-17 0)
(0.292373 7.66578e-17 0)
(0.292373 2.63982e-17 0)
(0.308636 -7.89802e-17 0)
(0.308636 -2.5125e-17 0)
(0.308636 8.01737e-17 0)
(0.308636 2.45513e-17 0)
(0.325016 -8.29245e-17 0)
(0.325016 -2.21958e-17 0)
(0.325016 8.38726e-17 0)
(0.325016 2.23201e-17 0)
(0.34151 -8.70115e-17 0)
(0.34151 -1.88465e-17 0)
(0.34151 8.74487e-17 0)
(0.34151 1.95375e-17 0)
(0.358119 -9.01882e-17 0)
(0.358119 -1.63708e-17 0)
(0.358119 9.00907e-17 0)
(0.358119 1.7751e-17 0)
(0.374839 -9.2985e-17 0)
(0.374839 -1.48726e-17 0)
(0.374839 9.27868e-17 0)
(0.374839 1.66788e-17 0)
(0.391669 -9.58832e-17 0)
(0.391669 -1.30604e-17 0)
(0.391669 9.57612e-17 0)
(0.391669 1.46751e-17 0)
(0.408607 -9.78057e-17 0)
(0.408607 -1.17962e-17 0)
(0.408607 9.84591e-17 0)
(0.408607 1.27273e-17 0)
(0.425651 -9.9731e-17 0)
(0.425651 -1.07691e-17 0)
(0.425651 1.00851e-16 0)
(0.425651 1.18104e-17 0)
(0.442797 -1.01014e-16 0)
(0.442797 -1.07643e-17 0)
(0.442797 1.02514e-16 0)
(0.442797 1.19163e-17 0)
(0.460045 -1.01815e-16 0)
(0.460045 -1.07586e-17 0)
(0.460045 1.03582e-16 0)
(0.460045 1.1682e-17 0)
(0.477391 -1.02243e-16 0)
(0.477391 -1.05002e-17 0)
(0.477391 1.04168e-16 0)
(0.477391 1.14417e-17 0)
(0.494833 -1.02217e-16 0)
(0.494833 -9.96377e-18 0)
(0.494833 1.04455e-16 0)
(0.494833 1.06856e-17 0)
(0.512368 -1.00933e-16 0)
(0.512368 -9.43807e-18 0)
(0.512368 1.03774e-16 0)
(0.512368 9.76574e-18 0)
(0.529992 -9.89846e-17 0)
(0.529992 -8.99635e-18 0)
(0.529992 1.01219e-16 0)
(0.529992 9.9238e-18 0)
(0.547703 -9.81195e-17 0)
(0.547703 -8.92586e-18 0)
(0.547703 9.98165e-17 0)
(0.547703 1.02632e-17 0)
(0.565496 -9.76989e-17 0)
(0.565496 -9.4281e-18 0)
(0.565496 9.98782e-17 0)
(0.565496 1.04341e-17 0)
(0.58337 -9.59146e-17 0)
(0.58337 -8.10788e-18 0)
(0.58337 9.69868e-17 0)
(0.58337 1.00913e-17 0)
(0.601319 -9.14188e-17 0)
(0.601319 -5.00024e-18 0)
(0.601319 9.14369e-17 0)
(0.601319 7.23669e-18 0)
(0.61934 -8.57318e-17 0)
(0.61934 -6.40997e-19 0)
(0.61934 8.5457e-17 0)
(0.61934 3.40928e-18 0)
(0.637429 -8.08062e-17 0)
(0.637429 4.15283e-18 0)
(0.637429 7.9891e-17 0)
(0.637429 -2.21281e-19 0)
(0.655581 -7.6997e-17 0)
(0.655581 7.91719e-18 0)
(0.655581 7.51351e-17 0)
(0.655581 -3.61697e-18 0)
(0.673792 -7.41132e-17 0)
(0.673792 1.30854e-17 0)
(0.673792 7.01791e-17 0)
(0.673792 -7.04402e-18 0)
(0.692057 -7.10855e-17 0)
(0.692057 1.8413e-17 0)
(0.692057 6.45271e-17 0)
(0.692057 -1.0529e-17 0)
(0.710371 -6.87508e-17 0)
(0.710371 2.05363e-17 0)
(0.710371 5.9519e-17 0)
(0.710371 -1.06977e-17 0)
(0.728729 -6.6757e-17 0)
(0.728729 1.9001e-17 0)
(0.728729 5.66077e-17 0)
(0.728729 -7.9066e-18 0)
(0.747125 -6.68309e-17 0)
(0.747125 1.50679e-17 0)
(0.747125 5.83579e-17 0)
(0.747125 -5.55075e-18 0)
(0.765554 -6.92099e-17 0)
(0.765554 9.22907e-18 0)
(0.765554 6.15948e-17 0)
(0.765554 -1.45918e-18 0)
(0.78401 -7.16291e-17 0)
(0.78401 1.9505e-18 0)
(0.78401 6.43209e-17 0)
(0.78401 4.53936e-18 0)
(0.802486 -7.07519e-17 0)
(0.802486 -6.11786e-18 0)
(0.802486 6.42488e-17 0)
(0.802486 1.07551e-17 0)
(0.820976 -6.66052e-17 0)
(0.820976 -1.46559e-17 0)
(0.820976 5.94326e-17 0)
(0.820976 1.97026e-17 0)
(0.839473 -6.05744e-17 0)
(0.839473 -2.29327e-17 0)
(0.839473 5.41678e-17 0)
(0.839473 2.73637e-17 0)
(0.85797 -5.41246e-17 0)
(0.85797 -3.27159e-17 0)
(0.85797 4.92364e-17 0)
(0.85797 3.688e-17 0)
(0.876459 -4.76164e-17 0)
(0.876459 -3.98245e-17 0)
(0.876459 4.41421e-17 0)
(0.876459 4.33519e-17 0)
(0.894934 -4.01198e-17 0)
(0.894934 -4.45521e-17 0)
(0.894934 3.58173e-17 0)
(0.894934 4.82933e-17 0)
(0.913385 -3.11813e-17 0)
(0.913385 -5.30959e-17 0)
(0.913385 2.53633e-17 0)
(0.913385 5.66469e-17 0)
(0.931805 -2.25059e-17 0)
(0.931805 -5.80509e-17 0)
(0.931805 1.59293e-17 0)
(0.931805 6.11957e-17 0)
(0.950184 -1.32015e-17 0)
(0.950184 -5.96173e-17 0)
(0.950184 3.94981e-18 0)
(0.950184 6.44992e-17 0)
(0.968514 -7.16956e-19 0)
(0.968514 -6.60807e-17 0)
(0.968514 -9.06968e-18 0)
(0.968514 6.95388e-17 0)
(0.986785 1.09311e-17 0)
(0.986785 -6.98815e-17 0)
(0.986785 -2.01702e-17 0)
(0.986785 7.33066e-17 0)
(1.00499 2.03243e-17 0)
(1.00499 -6.85184e-17 0)
(1.00499 -2.43452e-17 0)
(1.00499 6.81849e-17 0)
(1.02311 2.83509e-17 0)
(1.02311 -6.12624e-17 0)
(1.02311 -2.68696e-17 0)
(1.02311 5.62778e-17 0)
(1.04114 3.48799e-17 0)
(1.04114 -4.92052e-17 0)
(1.04114 -3.35546e-17 0)
(1.04114 4.2897e-17 0)
(1.05908 3.85021e-17 0)
(1.05908 -3.89865e-17 0)
(1.05908 -3.70567e-17 0)
(1.05908 3.21952e-17 0)
(1.0769 3.98409e-17 0)
(1.0769 -3.53128e-17 0)
(1.0769 -3.82403e-17 0)
(1.0769 2.90513e-17 0)
(1.0946 4.82624e-17 0)
(1.0946 -3.35673e-17 0)
(1.0946 -4.15877e-17 0)
(1.0946 2.24357e-17 0)
(1.11216 5.54203e-17 0)
(1.11216 -2.63812e-17 0)
(1.11216 -4.62635e-17 0)
(1.11216 1.26296e-17 0)
(1.12957 5.61194e-17 0)
(1.12957 -1.40332e-17 0)
(1.12957 -4.92168e-17 0)
(1.12957 2.38758e-18 0)
(1.14682 5.08828e-17 0)
(1.14682 -2.05747e-18 0)
(1.14682 -4.22699e-17 0)
(1.14682 -1.03869e-17 0)
(1.16389 4.48076e-17 0)
(1.16389 7.66129e-18 0)
(1.16389 -3.39943e-17 0)
(1.16389 -2.02016e-17 0)
(1.18077 4.09821e-17 0)
(1.18077 1.16251e-17 0)
(1.18077 -2.65979e-17 0)
(1.18077 -2.53958e-17 0)
(1.19744 3.55935e-17 0)
(1.19744 1.40995e-17 0)
(1.19744 -2.20011e-17 0)
(1.19744 -2.93403e-17 0)
(1.2139 2.74859e-17 0)
(1.2139 2.08994e-17 0)
(1.2139 -1.87524e-17 0)
(1.2139 -3.1386e-17 0)
(1.23011 1.98841e-17 0)
(1.23011 3.17169e-17 0)
(1.23011 -1.47178e-17 0)
(1.23011 -3.66444e-17 0)
(1.24607 1.56383e-17 0)
(1.24607 3.39226e-17 0)
(1.24607 -9.88902e-18 0)
(1.24607 -3.94729e-17 0)
(1.26176 6.06704e-18 0)
(1.26176 3.28763e-17 0)
(1.26176 4.66785e-18 0)
(1.26176 -4.56948e-17 0)
(1.27716 -1.03712e-17 0)
(1.27716 2.74391e-17 0)
(1.27716 2.17228e-17 0)
(1.27716 -3.95865e-17 0)
(1.29225 -2.68968e-17 0)
(1.29225 2.54451e-17 0)
(1.29225 3.60481e-17 0)
(1.29225 -3.12415e-17 0)
(1.30701 -4.27487e-17 0)
(1.30701 2.798e-17 0)
(1.30701 4.87732e-17 0)
(1.30701 -2.80136e-17 0)
(1.32143 -4.89835e-17 0)
(1.32143 3.47927e-17 0)
(1.32143 5.23986e-17 0)
(1.32143 -3.45569e-17 0)
(1.33548 -4.88944e-17 0)
(1.33548 4.14406e-17 0)
(1.33548 5.41912e-17 0)
(1.33548 -4.38464e-17 0)
(1.34914 -4.72654e-17 0)
(1.34914 4.81988e-17 0)
(1.34914 5.30997e-17 0)
(1.34914 -4.722e-17 0)
(1.36238 -4.8985e-17 0)
(1.36238 5.97291e-17 0)
(1.36238 4.8644e-17 0)
(1.36238 -5.48509e-17 0)
(1.3752 -4.30654e-17 0)
(1.3752 6.65587e-17 0)
(1.3752 3.90446e-17 0)
(1.3752 -5.76354e-17 0)
(1.38755 -2.43979e-17 0)
(1.38755 6.60771e-17 0)
(1.38755 2.24482e-17 0)
(1.38755 -5.81745e-17 0)
(1.39942 -1.1095e-17 0)
(1.39942 6.52145e-17 0)
(1.39942 6.63223e-18 0)
(1.39942 -5.64148e-17 0)
(1.41078 -7.8015e-18 0)
(1.41078 6.08265e-17 0)
(1.41078 3.01345e-18 0)
(1.41078 -5.12315e-17 0)
(1.42161 -1.16847e-17 0)
(1.42161 5.00488e-17 0)
(1.42161 8.35611e-18 0)
(1.42161 -4.27218e-17 0)
(1.43188 -1.61854e-17 0)
(1.43188 4.1451e-17 0)
(1.43188 1.62688e-17 0)
(1.43188 -3.87632e-17 0)
(1.44155 -2.75789e-17 0)
(1.44155 3.71979e-17 0)
(1.44155 2.71312e-17 0)
(1.44155 -3.36549e-17 0)
(1.45061 -4.64379e-17 0)
(1.45061 3.64102e-17 0)
(1.45061 4.04538e-17 0)
(1.45061 -2.60806e-17 0)
(1.45901 -6.15539e-17 0)
(1.45901 3.20926e-17 0)
(1.45901 5.11782e-17 0)
(1.45901 -1.851e-17 0)
(1.46673 -7.00373e-17 0)
(1.46673 1.24049e-17 0)
(1.46673 5.45509e-17 0)
(1.46673 2.31109e-18 0)
(1.47374 -7.72048e-17 0)
(1.47374 -1.30611e-17 0)
(1.47374 6.55438e-17 0)
(1.47374 2.25013e-17 0)
(1.48001 -7.82145e-17 0)
(1.48001 -3.18365e-17 0)
(1.48001 6.86135e-17 0)
(1.48001 4.12107e-17 0)
(1.48549 -7.31019e-17 0)
(1.48549 -3.50939e-17 0)
(1.48549 5.86314e-17 0)
(1.48549 5.07144e-17 0)
(1.49016 -7.22545e-17 0)
(1.49016 -3.6762e-17 0)
(1.49016 5.83574e-17 0)
(1.49016 4.88635e-17 0)
(1.49397 -5.99512e-17 0)
(1.49397 -3.78065e-17 0)
(1.49397 5.23924e-17 0)
(1.49397 4.31347e-17 0)
(1.49689 -4.58754e-17 0)
(1.49689 -2.91538e-17 0)
(1.49689 4.19002e-17 0)
(1.49689 3.36099e-17 0)
(1.49887 -3.82317e-17 0)
(1.49887 -1.18554e-17 0)
(1.49887 3.70695e-17 0)
(1.49887 1.31216e-17 0)
(1.49989 -1.19075e-17 0)
(1.49989 -7.06553e-18 0)
(1.49989 1.29211e-17 0)
(1.49989 5.69812e-18 0)
)
;

boundaryField
{
    inlet
    {
        type            cyclic;
    }
    outlet
    {
        type            cyclic;
    }
    fixedWalls-bottom
    {
        type            noSlip;
    }
    fixedWalls-top
    {
        type            symmetry;
    }
    frontAndBack
    {
        type            empty;
    }
}


// ************************************************************************* //
