/*--------------------------------*- C++ -*----------------------------------*\
  =========                 |
  \\      /  F ield         | OpenFOAM: The Open Source CFD Toolbox
   \\    /   O peration     | Website:  https://openfoam.org
    \\  /    A nd           | Version:  10
     \\/     M anipulation  |
\*---------------------------------------------------------------------------*/
FoamFile
{
    format      ascii;
    class       volSymmTensorField;
    location    "4548";
    object      R;
}
// * * * * * * * * * * * * * * * * * * * * * * * * * * * * * * * * * * * * * //

dimensions      [0 2 -2 0 0 0 0];

internalField   nonuniform List<symmTensor> 
400
(
(4.08083e-10 -5.87621e-14 -0 4.08083e-10 -0 4.08083e-10)
(4.08033e-10 -5.8755e-14 -0 4.08033e-10 -0 4.08033e-10)
(4.08034e-10 -5.8755e-14 -0 4.08034e-10 -0 4.08034e-10)
(4.08087e-10 -5.87627e-14 -0 4.08087e-10 -0 4.08087e-10)
(1.22437e-08 -1.02612e-11 -0 1.22437e-08 -0 1.22437e-08)
(1.22422e-08 -1.026e-11 -0 1.22422e-08 -0 1.22422e-08)
(1.22422e-08 -1.026e-11 -0 1.22422e-08 -0 1.22422e-08)
(1.22438e-08 -1.02613e-11 -0 1.22438e-08 -0 1.22438e-08)
(8.66989e-08 -2.14978e-10 -0 8.66989e-08 -0 8.66989e-08)
(8.66883e-08 -2.14951e-10 -0 8.66883e-08 -0 8.66883e-08)
(8.66884e-08 -2.14952e-10 -0 8.66884e-08 -0 8.66884e-08)
(8.67001e-08 -2.1498e-10 -0 8.67001e-08 -0 8.67001e-08)
(3.15188e-07 -1.65568e-09 -0 3.15188e-07 -0 3.15188e-07)
(3.15149e-07 -1.65547e-09 -0 3.15149e-07 -0 3.15149e-07)
(3.15149e-07 -1.65548e-09 -0 3.15149e-07 -0 3.15149e-07)
(3.15192e-07 -1.6557e-09 -0 3.15192e-07 -0 3.15192e-07)
(8.15545e-07 -7.53661e-09 -0 8.15545e-07 -0 8.15545e-07)
(8.15445e-07 -7.53569e-09 -0 8.15445e-07 -0 8.15445e-07)
(8.15446e-07 -7.53569e-09 -0 8.15446e-07 -0 8.15446e-07)
(8.15557e-07 -7.53671e-09 -0 8.15557e-07 -0 8.15557e-07)
(1.72718e-06 -2.50331e-08 -0 1.72718e-06 -0 1.72718e-06)
(1.72697e-06 -2.503e-08 -0 1.72697e-06 -0 1.72697e-06)
(1.72697e-06 -2.503e-08 -0 1.72697e-06 -0 1.72697e-06)
(1.72721e-06 -2.50334e-08 -0 1.72721e-06 -0 1.72721e-06)
(3.20984e-06 -6.75578e-08 -0 3.20984e-06 -0 3.20984e-06)
(3.20945e-06 -6.75495e-08 -0 3.20945e-06 -0 3.20945e-06)
(3.20945e-06 -6.75496e-08 -0 3.20945e-06 -0 3.20945e-06)
(3.2099e-06 -6.75587e-08 -0 3.2099e-06 -0 3.2099e-06)
(5.44338e-06 -1.57486e-07 -0 5.44338e-06 -0 5.44338e-06)
(5.44271e-06 -1.57466e-07 -0 5.44271e-06 -0 5.44271e-06)
(5.44272e-06 -1.57466e-07 -0 5.44272e-06 -0 5.44272e-06)
(5.44347e-06 -1.57488e-07 -0 5.44347e-06 -0 5.44347e-06)
(8.62783e-06 -3.29328e-07 -0 8.62783e-06 -0 8.62783e-06)
(8.62677e-06 -3.29287e-07 -0 8.62677e-06 -0 8.62677e-06)
(8.62679e-06 -3.29288e-07 -0 8.62679e-06 -0 8.62679e-06)
(8.62799e-06 -3.29332e-07 -0 8.62799e-06 -0 8.62799e-06)
(1.29835e-05 -6.33323e-07 -0 1.29835e-05 -0 1.29835e-05)
(1.29819e-05 -6.33244e-07 -0 1.29819e-05 -0 1.29819e-05)
(1.29819e-05 -6.33245e-07 -0 1.29819e-05 -0 1.29819e-05)
(1.29837e-05 -6.33332e-07 -0 1.29837e-05 -0 1.29837e-05)
(1.87506e-05 -1.13935e-06 -0 1.87506e-05 -0 1.87506e-05)
(1.87483e-05 -1.13921e-06 -0 1.87483e-05 -0 1.87483e-05)
(1.87483e-05 -1.13921e-06 -0 1.87483e-05 -0 1.87483e-05)
(1.8751e-05 -1.13937e-06 -0 1.8751e-05 -0 1.8751e-05)
(2.61887e-05 -1.94101e-06 -0 2.61887e-05 -0 2.61887e-05)
(2.61855e-05 -1.94076e-06 -0 2.61855e-05 -0 2.61855e-05)
(2.61856e-05 -1.94077e-06 -0 2.61856e-05 -0 2.61856e-05)
(2.61893e-05 -1.94104e-06 -0 2.61893e-05 -0 2.61893e-05)
(3.55755e-05 -3.15963e-06 -0 3.55755e-05 -0 3.55755e-05)
(3.55711e-05 -3.15923e-06 -0 3.55711e-05 -0 3.55711e-05)
(3.55712e-05 -3.15925e-06 -0 3.55712e-05 -0 3.55712e-05)
(3.55763e-05 -3.15969e-06 -0 3.55763e-05 -0 3.55763e-05)
(4.72041e-05 -4.94784e-06 -0 4.72041e-05 -0 4.72041e-05)
(4.71983e-05 -4.94722e-06 -0 4.71983e-05 -0 4.71983e-05)
(4.71985e-05 -4.94725e-06 -0 4.71985e-05 -0 4.71985e-05)
(4.72053e-05 -4.94796e-06 -0 4.72053e-05 -0 4.72053e-05)
(6.13804e-05 -7.49222e-06 -0 6.13804e-05 -0 6.13804e-05)
(6.13728e-05 -7.49127e-06 -0 6.13728e-05 -0 6.13728e-05)
(6.13731e-05 -7.49133e-06 -0 6.13731e-05 -0 6.13731e-05)
(6.13822e-05 -7.49243e-06 -0 6.13822e-05 -0 6.13822e-05)
(7.84179e-05 -1.10145e-05 -0 7.84179e-05 -0 7.84179e-05)
(7.84083e-05 -1.10131e-05 -0 7.84083e-05 -0 7.84083e-05)
(7.84087e-05 -1.10132e-05 -0 7.84087e-05 -0 7.84087e-05)
(7.84204e-05 -1.10148e-05 -0 7.84204e-05 -0 7.84204e-05)
(9.8632e-05 -1.57704e-05 -0 9.8632e-05 -0 9.8632e-05)
(9.86199e-05 -1.57684e-05 -0 9.86199e-05 -0 9.86199e-05)
(9.86205e-05 -1.57687e-05 -0 9.86205e-05 -0 9.86205e-05)
(9.86354e-05 -1.57711e-05 -0 9.86354e-05 -0 9.86354e-05)
(0.000122332 -2.20465e-05 -0 0.000122332 -0 0.000122332)
(0.000122317 -2.20437e-05 -0 0.000122317 -0 0.000122317)
(0.000122318 -2.20441e-05 -0 0.000122318 -0 0.000122318)
(0.000122337 -2.20476e-05 -0 0.000122337 -0 0.000122337)
(0.000149812 -3.01521e-05 -0 0.000149812 -0 0.000149812)
(0.000149794 -3.01483e-05 -0 0.000149794 -0 0.000149794)
(0.000149795 -3.01489e-05 -0 0.000149795 -0 0.000149795)
(0.000149818 -3.0154e-05 -0 0.000149818 -0 0.000149818)
(0.00018134 -4.04092e-05 -0 0.00018134 -0 0.00018134)
(0.000181318 -4.04042e-05 -0 0.000181318 -0 0.000181318)
(0.000181319 -4.04052e-05 -0 0.000181319 -0 0.000181319)
(0.000181348 -4.04123e-05 -0 0.000181348 -0 0.000181348)
(0.000217145 -5.31374e-05 -0 0.000217145 -0 0.000217145)
(0.000217118 -5.3131e-05 -0 0.000217118 -0 0.000217118)
(0.00021712 -5.31326e-05 -0 0.00021712 -0 0.00021712)
(0.000217155 -5.31424e-05 -0 0.000217155 -0 0.000217155)
(0.000257405 -6.86364e-05 -0 0.000257405 -0 0.000257405)
(0.000257374 -6.86282e-05 -0 0.000257374 -0 0.000257374)
(0.000257377 -6.86307e-05 -0 0.000257377 -0 0.000257377)
(0.000257419 -6.86441e-05 -0 0.000257419 -0 0.000257419)
(0.000302236 -8.71651e-05 -0 0.000302236 -0 0.000302236)
(0.0003022 -8.7155e-05 -0 0.0003022 -0 0.0003022)
(0.000302203 -8.71588e-05 -0 0.000302203 -0 0.000302203)
(0.000302253 -8.71767e-05 -0 0.000302253 -0 0.000302253)
(0.000351676 -0.000108922 -0 0.000351676 -0 0.000351676)
(0.000351634 -0.000108909 -0 0.000351634 -0 0.000351634)
(0.000351638 -0.000108915 -0 0.000351638 -0 0.000351638)
(0.000351697 -0.000108939 -0 0.000351697 -0 0.000351697)
(0.000405678 -0.000134023 -0 0.000405678 -0 0.000405678)
(0.000405631 -0.000134009 -0 0.00040563 -0 0.00040563)
(0.000405635 -0.000134017 -0 0.000405636 -0 0.000405635)
(0.000405703 -0.000134048 -0 0.000405703 -0 0.000405703)
(0.000464102 -0.000162491 -0 0.000464102 -0 0.000464102)
(0.00046405 -0.000162475 -0 0.000464049 -0 0.000464049)
(0.000464055 -0.000162485 -0 0.000464055 -0 0.000464055)
(0.000464133 -0.000162525 -0 0.000464133 -0 0.000464133)
(0.000526714 -0.00019424 -0 0.000526714 -0 0.000526714)
(0.000526655 -0.000194221 -0 0.000526655 -0 0.000526655)
(0.000526662 -0.000194234 -0 0.000526662 -0 0.000526662)
(0.00052675 -0.000194285 -0 0.00052675 -0 0.00052675)
(0.000593182 -0.000229073 -0 0.000593181 -0 0.000593182)
(0.000593118 -0.000229053 -0 0.000593118 -0 0.000593118)
(0.000593124 -0.000229069 -0 0.000593124 -0 0.000593124)
(0.000593223 -0.000229132 -0 0.000593223 -0 0.000593223)
(0.000663085 -0.000266691 -0 0.000663084 -0 0.000663084)
(0.000663015 -0.00026667 -0 0.000663015 -0 0.000663015)
(0.000663021 -0.000266689 -0 0.000663021 -0 0.000663021)
(0.000663131 -0.000266766 -0 0.000663131 -0 0.000663131)
(0.000735922 -0.0003067 -0 0.000735922 -0 0.000735922)
(0.000735847 -0.000306677 -0 0.000735847 -0 0.000735847)
(0.000735853 -0.0003067 -0 0.000735853 -0 0.000735853)
(0.000735973 -0.000306793 -0 0.000735973 -0 0.000735973)
(0.000811125 -0.000348631 -0 0.000811125 -0 0.000811125)
(0.000811046 -0.000348607 -0 0.000811046 -0 0.000811046)
(0.000811051 -0.000348633 -0 0.000811051 -0 0.000811051)
(0.00081118 -0.000348743 -0 0.00081118 -0 0.00081118)
(0.000888076 -0.000391964 -0 0.000888076 -0 0.000888076)
(0.000887993 -0.000391939 -0 0.000887993 -0 0.000887993)
(0.000887995 -0.000391968 -0 0.000887995 -0 0.000887995)
(0.000888132 -0.000392094 -0 0.000888132 -0 0.000888132)
(0.00096612 -0.000436148 -0 0.000966121 -0 0.00096612)
(0.000966035 -0.000436123 -0 0.000966035 -0 0.000966035)
(0.000966034 -0.000436154 -0 0.000966034 -0 0.000966034)
(0.000966177 -0.000436298 -0 0.000966177 -0 0.000966177)
(0.00104459 -0.000480691 -0 0.00104459 -0 0.00104459)
(0.0010445 -0.000480666 -0 0.0010445 -0 0.0010445)
(0.0010445 -0.0004807 -0 0.0010445 -0 0.0010445)
(0.00104464 -0.000480863 -0 0.00104464 -0 0.00104464)
(0.00112283 -0.000522117 -0 0.00112283 -0 0.00112283)
(0.00112274 -0.000522076 -0 0.00112274 -0 0.00112274)
(0.00112273 -0.00052207 -0 0.00112273 -0 0.00112273)
(0.00112288 -0.000522138 -0 0.00112288 -0 0.00112288)
(0.00120032 -0.000558151 -0 0.00120032 -0 0.00120032)
(0.00120024 -0.00055811 -0 0.00120024 -0 0.00120024)
(0.00120022 -0.000558102 -0 0.00120022 -0 0.00120022)
(0.00120037 -0.000558171 -0 0.00120037 -0 0.00120037)
(0.00127672 -0.000593675 -0 0.00127672 -0 0.00127672)
(0.00127664 -0.000593635 -0 0.00127664 -0 0.00127664)
(0.00127661 -0.000593624 -0 0.00127661 -0 0.00127661)
(0.00127676 -0.000593694 -0 0.00127676 -0 0.00127676)
(0.00135166 -0.000628521 -0 0.00135166 -0 0.00135166)
(0.00135157 -0.000628482 -0 0.00135157 -0 0.00135157)
(0.00135155 -0.000628468 -0 0.00135154 -0 0.00135154)
(0.00135169 -0.000628538 -0 0.00135169 -0 0.00135169)
(0.00142479 -0.000662528 -0 0.00142479 -0 0.00142479)
(0.00142471 -0.00066249 -0 0.00142471 -0 0.00142471)
(0.00142468 -0.000662474 -0 0.00142467 -0 0.00142467)
(0.00142483 -0.000662544 -0 0.00142482 -0 0.00142483)
(0.0014958 -0.000695547 -0 0.0014958 -0 0.0014958)
(0.00149572 -0.000695511 -0 0.00149572 -0 0.00149572)
(0.00149568 -0.000695493 -0 0.00149568 -0 0.00149568)
(0.00149583 -0.000695562 -0 0.00149583 -0 0.00149583)
(0.0015644 -0.000727444 -0 0.0015644 -0 0.0015644)
(0.00156432 -0.00072741 -0 0.00156432 -0 0.00156432)
(0.00156428 -0.000727389 -0 0.00156428 -0 0.00156428)
(0.00156443 -0.000727458 -0 0.00156443 -0 0.00156443)
(0.00163031 -0.000758097 -0 0.00163031 -0 0.00163031)
(0.00163025 -0.000758065 -0 0.00163025 -0 0.00163025)
(0.0016302 -0.000758042 -0 0.0016302 -0 0.0016302)
(0.00163034 -0.00075811 -0 0.00163034 -0 0.00163034)
(0.00169332 -0.000787399 -0 0.00169332 -0 0.00169332)
(0.00169326 -0.000787369 -0 0.00169326 -0 0.00169326)
(0.00169321 -0.000787344 -0 0.0016932 -0 0.0016932)
(0.00169335 -0.000787411 -0 0.00169335 -0 0.00169335)
(0.00175322 -0.000815258 -0 0.00175322 -0 0.00175322)
(0.00175316 -0.000815231 -0 0.00175316 -0 0.00175316)
(0.0017531 -0.000815204 -0 0.0017531 -0 0.0017531)
(0.00175324 -0.000815269 -0 0.00175324 -0 0.00175324)
(0.00180983 -0.000841602 -0 0.00180983 -0 0.00180983)
(0.00180978 -0.000841577 -0 0.00180978 -0 0.00180978)
(0.00180972 -0.000841548 -0 0.00180972 -0 0.00180972)
(0.00180985 -0.000841611 -0 0.00180985 -0 0.00180985)
(0.00186302 -0.000866376 -0 0.00186302 -0 0.00186302)
(0.00186297 -0.000866353 -0 0.00186297 -0 0.00186297)
(0.00186291 -0.000866323 -0 0.0018629 -0 0.0018629)
(0.00186304 -0.000866384 -0 0.00186304 -0 0.00186304)
(0.00191266 -0.000889552 -0 0.00191266 -0 0.00191266)
(0.00191262 -0.000889531 -0 0.00191262 -0 0.00191262)
(0.00191255 -0.0008895 -0 0.00191255 -0 0.00191255)
(0.00191268 -0.000889559 -0 0.00191268 -0 0.00191268)
(0.00195867 -0.000911128 -0 0.00195867 -0 0.00195867)
(0.00195863 -0.000911109 -0 0.00195863 -0 0.00195863)
(0.00195856 -0.000911077 -0 0.00195856 -0 0.00195856)
(0.00195869 -0.000911133 -0 0.00195869 -0 0.00195869)
(0.00200099 -0.000931135 -0 0.00200099 -0 0.00200099)
(0.00200095 -0.000931118 -0 0.00200095 -0 0.00200095)
(0.00200088 -0.000931085 -0 0.00200088 -0 0.00200088)
(0.002001 -0.000931138 -0 0.002001 -0 0.002001)
(0.00203955 -0.00094964 -0 0.00203955 -0 0.00203955)
(0.00203952 -0.000949625 -0 0.00203952 -0 0.00203952)
(0.00203945 -0.000949591 -0 0.00203945 -0 0.00203945)
(0.00203956 -0.00094964 -0 0.00203956 -0 0.00203956)
(0.00207434 -0.000966744 -0 0.00207434 -0 0.00207434)
(0.00207431 -0.00096673 -0 0.00207431 -0 0.00207431)
(0.00207424 -0.000966695 -0 0.00207424 -0 0.00207424)
(0.00207435 -0.00096674 -0 0.00207435 -0 0.00207435)
(0.00210533 -0.00098258 -0 0.00210533 -0 0.00210533)
(0.0021053 -0.000982567 -0 0.0021053 -0 0.0021053)
(0.00210523 -0.000982532 -0 0.00210523 -0 0.00210523)
(0.00210533 -0.000982571 -0 0.00210533 -0 0.00210533)
(0.00213249 -0.000997305 -0 0.00213249 -0 0.00213249)
(0.00213246 -0.000997292 -0 0.00213246 -0 0.00213246)
(0.0021324 -0.000997256 -0 0.0021324 -0 0.0021324)
(0.0021325 -0.00099729 -0 0.0021325 -0 0.0021325)
(0.00215582 -0.00101109 -0 0.00215582 -0 0.00215582)
(0.00215579 -0.00101107 -0 0.00215579 -0 0.00215579)
(0.00215572 -0.00101104 -0 0.00215573 -0 0.00215573)
(0.00215582 -0.00101106 -0 0.00215582 -0 0.00215582)
(0.00217528 -0.00102409 -0 0.00217528 -0 0.00217528)
(0.00217525 -0.00102408 -0 0.00217525 -0 0.00217525)
(0.00217519 -0.00102404 -0 0.00217519 -0 0.00217519)
(0.00217528 -0.00102406 -0 0.00217528 -0 0.00217528)
(0.00219083 -0.00103646 -0 0.00219083 -0 0.00219083)
(0.0021908 -0.00103645 -0 0.0021908 -0 0.0021908)
(0.00219074 -0.00103641 -0 0.00219074 -0 0.00219074)
(0.00219084 -0.00103642 -0 0.00219084 -0 0.00219084)
(0.00220241 -0.00104691 -0 0.00220241 -0 0.00220241)
(0.00220238 -0.00104689 -0 0.00220238 -0 0.00220238)
(0.00220232 -0.00104692 -0 0.00220232 -0 0.00220232)
(0.00220242 -0.00104714 -0 0.00220242 -0 0.00220242)
(0.00220996 -0.00104688 -0 0.00220996 -0 0.00220996)
(0.00220993 -0.00104687 -0 0.00220993 -0 0.00220993)
(0.00220987 -0.00104689 -0 0.00220987 -0 0.00220987)
(0.00220997 -0.00104709 -0 0.00220997 -0 0.00220997)
(0.00221368 -0.00104571 -0 0.00221368 -0 0.00221368)
(0.00221365 -0.0010457 -0 0.00221365 -0 0.00221365)
(0.00221359 -0.00104572 -0 0.00221359 -0 0.00221359)
(0.0022137 -0.00104592 -0 0.0022137 -0 0.0022137)
(0.00221375 -0.00104297 -0 0.00221375 -0 0.00221375)
(0.00221372 -0.00104296 -0 0.00221372 -0 0.00221372)
(0.00221366 -0.00104297 -0 0.00221366 -0 0.00221366)
(0.00221376 -0.00104317 -0 0.00221376 -0 0.00221376)
(0.00221032 -0.00103876 -0 0.00221032 -0 0.00221032)
(0.00221029 -0.00103876 -0 0.00221029 -0 0.00221029)
(0.00221023 -0.00103876 -0 0.00221023 -0 0.00221023)
(0.00221033 -0.00103896 -0 0.00221033 -0 0.00221033)
(0.00220354 -0.00103318 -0 0.00220354 -0 0.00220354)
(0.00220351 -0.00103318 -0 0.00220351 -0 0.00220351)
(0.00220345 -0.00103318 -0 0.00220345 -0 0.00220345)
(0.00220355 -0.00103337 -0 0.00220355 -0 0.00220355)
(0.00219356 -0.0010263 -0 0.00219356 -0 0.00219356)
(0.00219354 -0.00102632 -0 0.00219354 -0 0.00219354)
(0.00219348 -0.00102631 -0 0.00219348 -0 0.00219348)
(0.00219357 -0.0010265 -0 0.00219357 -0 0.00219357)
(0.00218053 -0.00101823 -0 0.00218053 -0 0.00218053)
(0.00218051 -0.00101825 -0 0.00218051 -0 0.00218051)
(0.00218046 -0.00101824 -0 0.00218046 -0 0.00218046)
(0.00218054 -0.00101842 -0 0.00218054 -0 0.00218054)
(0.00216459 -0.00100903 -0 0.00216459 -0 0.00216459)
(0.00216457 -0.00100903 -0 0.00216457 -0 0.00216457)
(0.00216452 -0.00100903 -0 0.00216452 -0 0.00216452)
(0.00216459 -0.0010092 -0 0.00216459 -0 0.00216459)
(0.00214584 -0.000998742 -0 0.00214584 -0 0.00214584)
(0.00214582 -0.000998736 -0 0.00214582 -0 0.00214582)
(0.00214578 -0.000998742 -0 0.00214578 -0 0.00214578)
(0.00214585 -0.000998895 -0 0.00214585 -0 0.00214585)
(0.00212442 -0.000987411 -0 0.00212442 -0 0.00212442)
(0.0021244 -0.000987395 -0 0.0021244 -0 0.0021244)
(0.00212436 -0.000987419 -0 0.00212436 -0 0.00212436)
(0.00212442 -0.000987552 -0 0.00212442 -0 0.00212442)
(0.00210042 -0.000975075 -0 0.00210042 -0 0.00210042)
(0.0021004 -0.000975064 -0 0.0021004 -0 0.0021004)
(0.00210036 -0.000975089 -0 0.00210036 -0 0.00210036)
(0.00210042 -0.000975209 -0 0.00210042 -0 0.00210042)
(0.00207394 -0.000961771 -0 0.00207394 -0 0.00207394)
(0.00207393 -0.000961759 -0 0.00207393 -0 0.00207393)
(0.00207389 -0.000961784 -0 0.00207389 -0 0.00207389)
(0.00207394 -0.000961897 -0 0.00207394 -0 0.00207394)
(0.00204508 -0.000947523 -0 0.00204508 -0 0.00204508)
(0.00204506 -0.00094751 -0 0.00204506 -0 0.00204506)
(0.00204503 -0.000947532 -0 0.00204503 -0 0.00204503)
(0.00204508 -0.00094764 -0 0.00204508 -0 0.00204508)
(0.0020139 -0.000932352 -0 0.00201391 -0 0.00201391)
(0.00201389 -0.000932345 -0 0.00201389 -0 0.00201389)
(0.00201386 -0.000932359 -0 0.00201386 -0 0.00201386)
(0.0020139 -0.000932464 -0 0.0020139 -0 0.0020139)
(0.0019805 -0.000916289 -0 0.0019805 -0 0.0019805)
(0.00198048 -0.000916292 -0 0.00198049 -0 0.00198049)
(0.00198046 -0.000916295 -0 0.00198046 -0 0.00198046)
(0.0019805 -0.000916395 -0 0.0019805 -0 0.0019805)
(0.00194492 -0.000899368 -0 0.00194493 -0 0.00194492)
(0.00194491 -0.000899375 -0 0.00194491 -0 0.00194491)
(0.00194489 -0.00089939 -0 0.00194489 -0 0.00194489)
(0.00194492 -0.000899465 -0 0.00194492 -0 0.00194492)
(0.00190724 -0.000881632 -0 0.00190725 -0 0.00190725)
(0.00190724 -0.000881665 -0 0.00190724 -0 0.00190724)
(0.00190722 -0.000881654 -0 0.00190722 -0 0.00190722)
(0.00190724 -0.000881723 -0 0.00190724 -0 0.00190724)
(0.00186751 -0.000863131 -0 0.00186751 -0 0.00186751)
(0.00186751 -0.000863178 -0 0.00186751 -0 0.00186751)
(0.00186749 -0.000863157 -0 0.00186749 -0 0.00186749)
(0.00186751 -0.000863215 -0 0.00186751 -0 0.00186751)
(0.00182577 -0.000843917 -0 0.00182577 -0 0.00182577)
(0.00182577 -0.000843985 -0 0.00182577 -0 0.00182577)
(0.00182575 -0.00084395 -0 0.00182575 -0 0.00182575)
(0.00182577 -0.000843995 -0 0.00182577 -0 0.00182577)
(0.00178227 -0.000824138 -0 0.00178227 -0 0.00178227)
(0.00178227 -0.000824218 -0 0.00178227 -0 0.00178227)
(0.00178225 -0.000824171 -0 0.00178225 -0 0.00178225)
(0.00178227 -0.000824203 -0 0.00178227 -0 0.00178227)
(0.00173727 -0.000803905 -0 0.00173727 -0 0.00173727)
(0.00173727 -0.000803983 -0 0.00173727 -0 0.00173727)
(0.00173724 -0.000803938 -0 0.00173725 -0 0.00173724)
(0.00173727 -0.000803988 -0 0.00173727 -0 0.00173727)
(0.0016907 -0.000783245 -0 0.0016907 -0 0.0016907)
(0.00169069 -0.000783299 -0 0.00169069 -0 0.00169069)
(0.00169067 -0.000783318 -0 0.00169067 -0 0.00169067)
(0.0016907 -0.000783445 -0 0.0016907 -0 0.0016907)
(0.00164245 -0.000760917 -0 0.00164245 -0 0.00164245)
(0.00164244 -0.000760929 -0 0.00164244 -0 0.00164244)
(0.00164241 -0.000760972 -0 0.00164242 -0 0.00164242)
(0.00164245 -0.000761125 -0 0.00164245 -0 0.00164245)
(0.00159249 -0.000736485 -0 0.00159248 -0 0.00159249)
(0.00159247 -0.000736478 -0 0.00159247 -0 0.00159247)
(0.00159244 -0.000736531 -0 0.00159245 -0 0.00159244)
(0.00159249 -0.000736721 -0 0.00159249 -0 0.00159249)
(0.00154089 -0.000709984 -0 0.00154088 -0 0.00154089)
(0.00154087 -0.000709981 -0 0.00154087 -0 0.00154087)
(0.00154084 -0.000709986 -0 0.00154084 -0 0.00154084)
(0.00154089 -0.000710261 -0 0.00154089 -0 0.00154089)
(0.00148781 -0.000681515 -0 0.00148781 -0 0.00148781)
(0.00148779 -0.000681493 -0 0.00148778 -0 0.00148778)
(0.00148775 -0.000681538 -0 0.00148775 -0 0.00148775)
(0.00148781 -0.000681827 -0 0.00148781 -0 0.00148781)
(0.00143348 -0.000651226 -0 0.00143348 -0 0.00143348)
(0.00143345 -0.000651155 -0 0.00143345 -0 0.00143345)
(0.00143342 -0.000651333 -0 0.00143343 -0 0.00143343)
(0.00143348 -0.000651556 -0 0.00143349 -0 0.00143348)
(0.00137819 -0.000619264 -0 0.00137819 -0 0.00137819)
(0.00137815 -0.000619188 -0 0.00137815 -0 0.00137815)
(0.00137814 -0.0006194 -0 0.00137814 -0 0.00137814)
(0.0013782 -0.000619626 -0 0.0013782 -0 0.0013782)
(0.00132229 -0.000585773 -0 0.00132229 -0 0.00132229)
(0.00132224 -0.00058569 -0 0.00132224 -0 0.00132224)
(0.00132224 -0.000585935 -0 0.00132224 -0 0.00132224)
(0.0013223 -0.000586168 -0 0.0013223 -0 0.0013223)
(0.00126617 -0.000550893 -0 0.00126617 -0 0.00126617)
(0.00126612 -0.000550803 -0 0.00126612 -0 0.00126612)
(0.00126612 -0.000551076 -0 0.00126612 -0 0.00126612)
(0.00126618 -0.000551316 -0 0.00126618 -0 0.00126618)
(0.00121028 -0.000514757 -0 0.00121028 -0 0.00121028)
(0.00121022 -0.000514662 -0 0.00121022 -0 0.00121022)
(0.00121023 -0.00051496 -0 0.00121023 -0 0.00121023)
(0.00121029 -0.000515204 -0 0.0012103 -0 0.00121029)
(0.00115511 -0.000477494 -0 0.00115511 -0 0.00115511)
(0.00115505 -0.000477395 -0 0.00115505 -0 0.00115505)
(0.00115506 -0.000477713 -0 0.00115506 -0 0.00115506)
(0.00115512 -0.000477957 -0 0.00115512 -0 0.00115512)
(0.00110119 -0.000439225 -0 0.00110119 -0 0.00110119)
(0.00110112 -0.000439124 -0 0.00110112 -0 0.00110112)
(0.00110113 -0.000439458 -0 0.00110113 -0 0.00110113)
(0.0011012 -0.000439697 -0 0.0011012 -0 0.0011012)
(0.00104907 -0.000400067 -0 0.00104907 -0 0.00104907)
(0.00104901 -0.000399968 -0 0.00104901 -0 0.00104901)
(0.00104902 -0.000400309 -0 0.00104902 -0 0.00104902)
(0.00104908 -0.000400538 -0 0.00104908 -0 0.00104908)
(0.000999358 -0.000360129 -0 0.000999359 -0 0.000999358)
(0.000999297 -0.000360037 -0 0.000999298 -0 0.000999298)
(0.00099931 -0.000360374 -0 0.000999309 -0 0.000999309)
(0.00099937 -0.000360592 -0 0.000999369 -0 0.000999369)
(0.000952672 -0.000319512 -0 0.000952674 -0 0.000952673)
(0.000952617 -0.000319439 -0 0.000952619 -0 0.000952618)
(0.000952629 -0.000319752 -0 0.000952627 -0 0.000952628)
(0.000952684 -0.000319958 -0 0.000952682 -0 0.000952683)
(0.000909649 -0.000278309 -0 0.000909652 -0 0.000909651)
(0.000909604 -0.000278278 -0 0.000909606 -0 0.000909605)
(0.000909611 -0.000278525 -0 0.000909608 -0 0.000909609)
(0.00090966 -0.000278731 -0 0.000909658 -0 0.000909659)
(0.000870931 -0.000236597 -0 0.000870934 -0 0.000870932)
(0.000870902 -0.000236686 -0 0.000870904 -0 0.000870903)
(0.000870893 -0.000236745 -0 0.000870891 -0 0.000870892)
(0.00087094 -0.000236997 -0 0.000870938 -0 0.000870939)
(0.00083713 -0.000194435 -0 0.000837132 -0 0.000837131)
(0.000837112 -0.000194535 -0 0.000837114 -0 0.000837113)
(0.000837092 -0.000194554 -0 0.00083709 -0 0.000837091)
(0.000837139 -0.00019481 -0 0.000837137 -0 0.000837138)
(0.000808721 -0.000151862 -0 0.000808723 -0 0.000808722)
(0.000808709 -0.000151951 -0 0.000808711 -0 0.00080871)
(0.000808685 -0.000151958 -0 0.000808683 -0 0.000808684)
(0.000808733 -0.00015218 -0 0.000808731 -0 0.000808732)
(0.000786199 -0.000108889 -0 0.000786201 -0 0.0007862)
(0.000786189 -0.00010896 -0 0.000786191 -0 0.00078619)
(0.000786165 -0.000108965 -0 0.000786164 -0 0.000786164)
(0.000786213 -0.000109132 -0 0.000786211 -0 0.000786212)
(0.000770511 -6.5583e-05 -0 0.000770513 -0 0.000770512)
(0.000770503 -6.56333e-05 -0 0.000770506 -0 0.000770504)
(0.000770481 -6.56373e-05 -0 0.000770479 -0 0.00077048)
(0.000770525 -6.57415e-05 -0 0.000770522 -0 0.000770523)
(0.000762456 -2.19374e-05 -0 0.000762458 -0 0.000762457)
(0.000762449 -2.19605e-05 -0 0.000762451 -0 0.00076245)
(0.000762428 -2.19629e-05 -0 0.000762425 -0 0.000762426)
(0.000762469 -2.19978e-05 -0 0.000762467 -0 0.000762468)
)
;

boundaryField
{
    inlet
    {
        type            cyclic;
    }
    outlet
    {
        type            cyclic;
    }
    fixedWalls-bottom
    {
        type            kqRWallFunction;
        value           nonuniform List<symmTensor> 4((4.08083e-10 -0 -0 4.08083e-10 -0 4.08083e-10) (4.08033e-10 -0 -0 4.08033e-10 -0 4.08033e-10) (4.08034e-10 -0 -0 4.08034e-10 -0 4.08034e-10) (4.08087e-10 -0 -0 4.08087e-10 -0 4.08087e-10));
    }
    fixedWalls-top
    {
        type            symmetry;
    }
    frontAndBack
    {
        type            empty;
    }
}


// ************************************************************************* //
