/*--------------------------------*- C++ -*----------------------------------*\
  =========                 |
  \\      /  F ield         | OpenFOAM: The Open Source CFD Toolbox
   \\    /   O peration     | Website:  https://openfoam.org
    \\  /    A nd           | Version:  10
     \\/     M anipulation  |
\*---------------------------------------------------------------------------*/
FoamFile
{
    format      ascii;
    class       volScalarField;
    location    "2121";
    object      p;
}
// * * * * * * * * * * * * * * * * * * * * * * * * * * * * * * * * * * * * * //

dimensions      [0 2 -2 0 0 0 0];

internalField   nonuniform List<scalar> 
400
(
-4.21968e-11
-4.81254e-06
-1.26909e-05
-7.87899e-06
-5.78178e-09
-4.80021e-06
-1.26852e-05
-7.89131e-06
-1.18875e-08
-4.78572e-06
-1.26792e-05
-7.90581e-06
-1.72551e-08
-4.7713e-06
-1.26738e-05
-7.92023e-06
-2.19731e-08
-4.75683e-06
-1.26691e-05
-7.93469e-06
-2.61748e-08
-4.74207e-06
-1.26649e-05
-7.94946e-06
-2.98869e-08
-4.72696e-06
-1.26612e-05
-7.96457e-06
-3.31014e-08
-4.71154e-06
-1.26579e-05
-7.97999e-06
-3.58269e-08
-4.69583e-06
-1.26552e-05
-7.9957e-06
-3.80832e-08
-4.67986e-06
-1.2653e-05
-8.01166e-06
-3.99106e-08
-4.66369e-06
-1.26511e-05
-8.02784e-06
-4.13652e-08
-4.64737e-06
-1.26497e-05
-8.04416e-06
-4.2536e-08
-4.63101e-06
-1.26485e-05
-8.06051e-06
-4.35466e-08
-4.61477e-06
-1.26475e-05
-8.07676e-06
-4.4579e-08
-4.59886e-06
-1.26465e-05
-8.09266e-06
-4.58835e-08
-4.58366e-06
-1.26452e-05
-8.10787e-06
-4.78205e-08
-4.56973e-06
-1.26432e-05
-8.1218e-06
-5.09038e-08
-4.55803e-06
-1.26401e-05
-8.13351e-06
-5.58874e-08
-4.55013e-06
-1.26352e-05
-8.14141e-06
-6.38685e-08
-4.54865e-06
-1.26272e-05
-8.1429e-06
-7.64249e-08
-4.55775e-06
-1.26146e-05
-8.13381e-06
-9.59679e-08
-4.58419e-06
-1.25951e-05
-8.1074e-06
-1.27471e-07
-4.64096e-06
-1.25636e-05
-8.05065e-06
-1.83194e-07
-4.75728e-06
-1.25079e-05
-7.93437e-06
-2.85216e-07
-4.98625e-06
-1.24059e-05
-7.70541e-06
-4.38508e-07
-5.34681e-06
-1.22527e-05
-7.34477e-06
-5.46752e-07
-5.6164e-06
-1.21444e-05
-7.07513e-06
-5.71583e-07
-5.69691e-06
-1.21195e-05
-6.99462e-06
-5.82366e-07
-5.74356e-06
-1.21087e-05
-6.94797e-06
-5.97372e-07
-5.79661e-06
-1.20937e-05
-6.89492e-06
-6.14347e-07
-5.84929e-06
-1.20767e-05
-6.84224e-06
-6.30845e-07
-5.89423e-06
-1.20602e-05
-6.7973e-06
-6.46431e-07
-5.9287e-06
-1.20446e-05
-6.76283e-06
-6.61007e-07
-5.95112e-06
-1.203e-05
-6.74041e-06
-6.74531e-07
-5.96032e-06
-1.20165e-05
-6.73121e-06
-6.88666e-07
-5.95819e-06
-1.20024e-05
-6.73334e-06
-7.06928e-07
-5.94915e-06
-1.19841e-05
-6.74238e-06
-7.33005e-07
-5.93699e-06
-1.19581e-05
-6.75455e-06
-7.70243e-07
-5.92441e-06
-1.19208e-05
-6.76713e-06
-8.2168e-07
-5.91359e-06
-1.18694e-05
-6.77797e-06
-8.90134e-07
-5.9064e-06
-1.18009e-05
-6.78518e-06
-9.78281e-07
-5.90465e-06
-1.17128e-05
-6.78695e-06
-1.08867e-06
-5.91019e-06
-1.16024e-05
-6.78145e-06
-1.22361e-06
-5.92488e-06
-1.14674e-05
-6.76679e-06
-1.38496e-06
-5.9505e-06
-1.13061e-05
-6.74119e-06
-1.57405e-06
-5.98856e-06
-1.1117e-05
-6.70315e-06
-1.79158e-06
-6.04019e-06
-1.08994e-05
-6.65152e-06
-2.03762e-06
-6.10607e-06
-1.06534e-05
-6.58563e-06
-2.31153e-06
-6.18626e-06
-1.03795e-05
-6.5054e-06
-2.61187e-06
-6.28018e-06
-1.00792e-05
-6.41143e-06
-2.93625e-06
-6.38645e-06
-9.7548e-06
-6.30507e-06
-3.2811e-06
-6.50295e-06
-9.41e-06
-6.18847e-06
-3.64121e-06
-6.62676e-06
-9.04993e-06
-6.06454e-06
-4.00922e-06
-6.7543e-06
-8.68197e-06
-5.93689e-06
-4.37446e-06
-6.88164e-06
-8.31677e-06
-5.80946e-06
-4.72141e-06
-7.00512e-06
-7.96986e-06
-5.68593e-06
-5.02933e-06
-7.12226e-06
-7.66196e-06
-5.5688e-06
-5.27872e-06
-7.23179e-06
-7.41258e-06
-5.45935e-06
-5.46288e-06
-7.33126e-06
-7.22839e-06
-5.35999e-06
-5.58721e-06
-7.41675e-06
-7.10403e-06
-5.27463e-06
-5.65995e-06
-7.48521e-06
-7.03125e-06
-5.20629e-06
-5.68919e-06
-7.53508e-06
-7.00198e-06
-5.15653e-06
-5.68262e-06
-7.56595e-06
-7.00852e-06
-5.12575e-06
-5.64762e-06
-7.57836e-06
-7.04349e-06
-5.11341e-06
-5.59134e-06
-7.57373e-06
-7.09976e-06
-5.11808e-06
-5.52078e-06
-7.55414e-06
-7.17031e-06
-5.13769e-06
-5.44285e-06
-7.52192e-06
-7.24825e-06
-5.1699e-06
-5.36419e-06
-7.47925e-06
-7.32691e-06
-5.21254e-06
-5.29059e-06
-7.42767e-06
-7.40051e-06
-5.26408e-06
-5.22641e-06
-7.36792e-06
-7.46468e-06
-5.32378e-06
-5.17447e-06
-7.30019e-06
-7.51662e-06
-5.39146e-06
-5.13689e-06
-7.22406e-06
-7.55417e-06
-5.46753e-06
-5.12055e-06
-7.13837e-06
-7.57047e-06
-5.55318e-06
-5.14349e-06
-7.04033e-06
-7.54744e-06
-5.6512e-06
-5.19843e-06
-6.92179e-06
-7.49234e-06
-5.76973e-06
-5.09708e-06
-6.76508e-06
-7.59357e-06
-5.92615e-06
-4.39821e-06
-6.56669e-06
-8.29265e-06
-6.12379e-06
-3.42757e-06
-6.50219e-06
-9.26342e-06
-6.18795e-06
-2.83265e-06
-6.72398e-06
-9.85805e-06
-5.96668e-06
-2.56826e-06
-7.09479e-06
-1.01223e-05
-5.59641e-06
-2.48536e-06
-7.36153e-06
-1.02055e-05
-5.32988e-06
-2.50746e-06
-7.42493e-06
-1.01837e-05
-5.26651e-06
-2.58753e-06
-7.38318e-06
-1.01037e-05
-5.30826e-06
-2.68018e-06
-7.32128e-06
-1.00111e-05
-5.37017e-06
-2.76814e-06
-7.26526e-06
-9.92306e-06
-5.42619e-06
-2.84694e-06
-7.22132e-06
-9.84424e-06
-5.47013e-06
-2.9158e-06
-7.19052e-06
-9.77537e-06
-5.50092e-06
-2.97517e-06
-7.17165e-06
-9.716e-06
-5.51978e-06
-3.02629e-06
-7.16232e-06
-9.66489e-06
-5.52911e-06
-3.07062e-06
-7.15992e-06
-9.62056e-06
-5.5315e-06
-3.10939e-06
-7.16222e-06
-9.58179e-06
-5.52921e-06
-3.14349e-06
-7.16741e-06
-9.5477e-06
-5.52401e-06
-3.17349e-06
-7.17416e-06
-9.5177e-06
-5.51726e-06
-3.19973e-06
-7.18152e-06
-9.49147e-06
-5.50991e-06
-3.22236e-06
-7.18881e-06
-9.46884e-06
-5.50261e-06
-3.24144e-06
-7.19555e-06
-9.44976e-06
-5.49587e-06
-3.25694e-06
-7.20137e-06
-9.43426e-06
-5.49005e-06
-3.26873e-06
-7.20597e-06
-9.42247e-06
-5.48546e-06
-3.27647e-06
-7.20916e-06
-9.41473e-06
-5.48226e-06
-3.27996e-06
-7.21092e-06
-9.41124e-06
-5.48051e-06
)
;

boundaryField
{
    inlet
    {
        type            cyclic;
    }
    outlet
    {
        type            cyclic;
    }
    fixedWalls-bottom
    {
        type            zeroGradient;
    }
    fixedWalls-top
    {
        type            symmetry;
    }
    frontAndBack
    {
        type            empty;
    }
}


// ************************************************************************* //
