/*--------------------------------*- C++ -*----------------------------------*\
  =========                 |
  \\      /  F ield         | OpenFOAM: The Open Source CFD Toolbox
   \\    /   O peration     | Website:  https://openfoam.org
    \\  /    A nd           | Version:  10
     \\/     M anipulation  |
\*---------------------------------------------------------------------------*/
FoamFile
{
    format      ascii;
    class       volSymmTensorField;
    location    "2121";
    object      R;
}
// * * * * * * * * * * * * * * * * * * * * * * * * * * * * * * * * * * * * * //

dimensions      [0 2 -2 0 0 0 0];

internalField   nonuniform List<symmTensor> 
400
(
(8.4348e-09 -4.10258e-13 -0 8.4348e-09 -0 8.4348e-09)
(8.4164e-09 -4.09352e-13 -0 8.4164e-09 -0 8.4164e-09)
(8.41014e-09 -4.09021e-13 -0 8.41014e-09 -0 8.41014e-09)
(8.42471e-09 -4.09738e-13 -0 8.42471e-09 -0 8.42471e-09)
(2.53068e-07 -7.16382e-11 -0 2.53068e-07 -0 2.53068e-07)
(2.52516e-07 -7.14799e-11 -0 2.52516e-07 -0 2.52516e-07)
(2.52328e-07 -7.14222e-11 -0 2.52328e-07 -0 2.52328e-07)
(2.52765e-07 -7.15477e-11 -0 2.52765e-07 -0 2.52765e-07)
(1.79207e-06 -1.50114e-09 -0 1.79207e-06 -0 1.79207e-06)
(1.78816e-06 -1.49782e-09 -0 1.78816e-06 -0 1.78816e-06)
(1.78683e-06 -1.49661e-09 -0 1.78683e-06 -0 1.78683e-06)
(1.78993e-06 -1.49925e-09 -0 1.78993e-06 -0 1.78993e-06)
(6.51473e-06 -1.15611e-08 -0 6.51473e-06 -0 6.51473e-06)
(6.50052e-06 -1.15354e-08 -0 6.50052e-06 -0 6.50052e-06)
(6.49569e-06 -1.15261e-08 -0 6.49569e-06 -0 6.49569e-06)
(6.50694e-06 -1.15465e-08 -0 6.50694e-06 -0 6.50694e-06)
(1.68568e-05 -5.26253e-08 -0 1.68568e-05 -0 1.68568e-05)
(1.682e-05 -5.25082e-08 -0 1.682e-05 -0 1.682e-05)
(1.68075e-05 -5.24661e-08 -0 1.68075e-05 -0 1.68075e-05)
(1.68366e-05 -5.25591e-08 -0 1.68366e-05 -0 1.68366e-05)
(3.57018e-05 -1.74815e-07 -0 3.57018e-05 -0 3.57018e-05)
(3.5624e-05 -1.74423e-07 -0 3.5624e-05 -0 3.5624e-05)
(3.55975e-05 -1.74285e-07 -0 3.55975e-05 -0 3.55975e-05)
(3.56591e-05 -1.74595e-07 -0 3.56591e-05 -0 3.56591e-05)
(6.63584e-05 -4.71932e-07 -0 6.63584e-05 -0 6.63584e-05)
(6.62139e-05 -4.70865e-07 -0 6.62139e-05 -0 6.62139e-05)
(6.61646e-05 -4.70494e-07 -0 6.61646e-05 -0 6.61646e-05)
(6.6279e-05 -4.71341e-07 -0 6.6279e-05 -0 6.6279e-05)
(0.000112561 -1.10092e-06 -0 0.000112561 -0 0.000112561)
(0.000112316 -1.0984e-06 -0 0.000112316 -0 0.000112316)
(0.000112232 -1.09755e-06 -0 0.000112232 -0 0.000112232)
(0.000112426 -1.09955e-06 -0 0.000112426 -0 0.000112426)
(0.000178477 -2.30557e-06 -0 0.000178477 -0 0.000178477)
(0.000178091 -2.30022e-06 -0 0.000178091 -0 0.000178091)
(0.000177958 -2.29846e-06 -0 0.000177958 -0 0.000177958)
(0.000178264 -2.30273e-06 -0 0.000178264 -0 0.000178264)
(0.00026872 -4.44625e-06 -0 0.00026872 -0 0.00026872)
(0.00026814 -4.43577e-06 -0 0.00026814 -0 0.00026814)
(0.000267939 -4.43244e-06 -0 0.000267939 -0 0.000267939)
(0.000268397 -4.44086e-06 -0 0.000268397 -0 0.000268397)
(0.000388338 -8.03963e-06 -0 0.000388338 -0 0.000388338)
(0.000387506 -8.02027e-06 -0 0.000387505 -0 0.000387506)
(0.000387213 -8.01437e-06 -0 0.000387213 -0 0.000387213)
(0.000387871 -8.03002e-06 -0 0.000387871 -0 0.000387871)
(0.000542793 -1.38156e-05 -0 0.000542794 -0 0.000542793)
(0.000541639 -1.37814e-05 -0 0.000541639 -0 0.000541639)
(0.000541228 -1.37715e-05 -0 0.000541228 -0 0.000541228)
(0.000542138 -1.37993e-05 -0 0.000542139 -0 0.000542138)
(0.00073789 -2.28032e-05 -0 0.00073789 -0 0.00073789)
(0.000736335 -2.27447e-05 -0 0.000736334 -0 0.000736335)
(0.000735773 -2.27287e-05 -0 0.000735772 -0 0.000735773)
(0.000736996 -2.27762e-05 -0 0.000736996 -0 0.000736996)
(0.000979642 -3.64619e-05 -0 0.000979642 -0 0.000979642)
(0.000977602 -3.63638e-05 -0 0.000977601 -0 0.000977602)
(0.000976851 -3.63389e-05 -0 0.000976851 -0 0.000976851)
(0.000978451 -3.64177e-05 -0 0.000978452 -0 0.000978451)
(0.00127407 -5.68818e-05 -0 0.00127407 -0 0.00127407)
(0.00127146 -5.67197e-05 -0 0.00127146 -0 0.00127146)
(0.00127048 -5.66817e-05 -0 0.00127047 -0 0.00127048)
(0.00127252 -5.68091e-05 -0 0.00127252 -0 0.00127252)
(0.00162692 -8.70838e-05 -0 0.00162692 -0 0.00162692)
(0.00162364 -8.68183e-05 -0 0.00162364 -0 0.00162364)
(0.00162238 -8.67613e-05 -0 0.00162238 -0 0.00162238)
(0.00162494 -8.69625e-05 -0 0.00162494 -0 0.00162494)
(0.00204326 -0.000131466 -0 0.00204326 -0 0.00204326)
(0.00203925 -0.000131032 -0 0.00203924 -0 0.00203924)
(0.00203765 -0.000130947 -0 0.00203765 -0 0.00203765)
(0.00204079 -0.00013126 -0 0.00204079 -0 0.00204079)
(0.00252707 -0.00019645 -0 0.00252707 -0 0.00252707)
(0.00252226 -0.000195741 -0 0.00252225 -0 0.00252226)
(0.00252028 -0.000195616 -0 0.00252028 -0 0.00252028)
(0.00252406 -0.000196099 -0 0.00252407 -0 0.00252406)
(0.00308073 -0.000291414 -0 0.00308073 -0 0.00308073)
(0.00307509 -0.000290257 -0 0.00307507 -0 0.00307508)
(0.00307266 -0.000290072 -0 0.00307266 -0 0.00307266)
(0.00307714 -0.000290811 -0 0.00307716 -0 0.00307715)
(0.00370447 -0.000429978 -0 0.00370447 -0 0.00370447)
(0.003698 -0.000428096 -0 0.00369798 -0 0.00369799)
(0.00369509 -0.000427818 -0 0.00369509 -0 0.00369509)
(0.00370032 -0.000428953 -0 0.00370033 -0 0.00370033)
(0.00439586 -0.000631707 -0 0.00439586 -0 0.00439586)
(0.00438862 -0.000628662 -0 0.00438859 -0 0.00438861)
(0.00438517 -0.000628232 -0 0.00438517 -0 0.00438517)
(0.00439117 -0.000629987 -0 0.0043912 -0 0.00439119)
(0.0051492 -0.000924102 -0 0.0051492 -0 0.0051492)
(0.00514131 -0.000919225 -0 0.00514127 -0 0.00514129)
(0.0051373 -0.000918528 -0 0.0051373 -0 0.0051373)
(0.00514408 -0.000921293 -0 0.00514412 -0 0.0051441)
(0.00595495 -0.00134443 -0 0.00595495 -0 0.00595495)
(0.00594662 -0.00133674 -0 0.00594656 -0 0.00594659)
(0.00594205 -0.00133552 -0 0.00594205 -0 0.00594205)
(0.00594955 -0.00134 -0 0.00594962 -0 0.00594959)
(0.00679921 -0.00194004 -0 0.00679921 -0 0.00679921)
(0.00679074 -0.00192826 -0 0.00679066 -0 0.0067907)
(0.00678563 -0.00192617 -0 0.00678563 -0 0.00678563)
(0.00679376 -0.00193345 -0 0.00679384 -0 0.0067938)
(0.0076633 -0.00276449 -0 0.00766331 -0 0.00766331)
(0.00765507 -0.00274739 -0 0.00765499 -0 0.00765503)
(0.00764953 -0.00274348 -0 0.00764953 -0 0.00764953)
(0.00765809 -0.00275545 -0 0.00765816 -0 0.00765813)
(0.00852396 -0.00391012 -0 0.00852399 -0 0.00852398)
(0.00851644 -0.0038852 -0 0.0085164 -0 0.00851642)
(0.00851067 -0.00387752 -0 0.00851064 -0 0.00851065)
(0.0085193 -0.00389793 -0 0.00851934 -0 0.00851932)
(0.00936964 -0.00435689 -0 0.00936969 -0 0.00936967)
(0.00936294 -0.00435377 -0 0.00936296 -0 0.00936295)
(0.00935705 -0.00435102 -0 0.00935701 -0 0.00935703)
(0.00936566 -0.00435503 -0 0.00936564 -0 0.00936565)
(0.0102017 -0.0047438 -0 0.0102017 -0 0.0102017)
(0.0101956 -0.00474097 -0 0.0101957 -0 0.0101956)
(0.0101896 -0.00473816 -0 0.0101896 -0 0.0101896)
(0.0101983 -0.00474221 -0 0.0101983 -0 0.0101983)
(0.0110131 -0.00512108 -0 0.0110131 -0 0.0110131)
(0.0110077 -0.00511858 -0 0.0110077 -0 0.0110077)
(0.0110017 -0.00511577 -0 0.0110016 -0 0.0110016)
(0.0110104 -0.00511981 -0 0.0110103 -0 0.0110103)
(0.0117966 -0.00548542 -0 0.0117966 -0 0.0117966)
(0.011792 -0.00548328 -0 0.011792 -0 0.011792)
(0.0117861 -0.00548051 -0 0.011786 -0 0.0117861)
(0.0117947 -0.0054845 -0 0.0117946 -0 0.0117946)
(0.0125461 -0.00583394 -0 0.0125461 -0 0.0125461)
(0.0125423 -0.0058322 -0 0.0125424 -0 0.0125424)
(0.0125366 -0.00582953 -0 0.0125366 -0 0.0125366)
(0.012545 -0.00583342 -0 0.012545 -0 0.012545)
(0.0132565 -0.00616427 -0 0.0132565 -0 0.0132565)
(0.0132536 -0.00616294 -0 0.0132537 -0 0.0132536)
(0.0132482 -0.00616042 -0 0.0132482 -0 0.0132482)
(0.0132563 -0.00616417 -0 0.0132562 -0 0.0132563)
(0.0139236 -0.00647447 -0 0.0139236 -0 0.0139236)
(0.0139216 -0.00647356 -0 0.0139217 -0 0.0139216)
(0.0139166 -0.00647122 -0 0.0139166 -0 0.0139166)
(0.0139243 -0.0064748 -0 0.0139243 -0 0.0139243)
(0.014544 -0.00676295 -0 0.0145439 -0 0.014544)
(0.014543 -0.00676249 -0 0.014543 -0 0.014543)
(0.0145384 -0.00676036 -0 0.0145384 -0 0.0145384)
(0.0145457 -0.00676375 -0 0.0145457 -0 0.0145457)
(0.015115 -0.00702846 -0 0.0151149 -0 0.015115)
(0.015115 -0.00702847 -0 0.015115 -0 0.015115)
(0.0151108 -0.00702657 -0 0.015111 -0 0.0151109)
(0.0151177 -0.00702975 -0 0.0151177 -0 0.0151177)
(0.0156446 -0.0072747 -0 0.0156444 -0 0.0156445)
(0.0156452 -0.00727499 -0 0.0156451 -0 0.0156451)
(0.0156412 -0.00727322 -0 0.0156414 -0 0.0156413)
(0.0156483 -0.00727648 -0 0.0156484 -0 0.0156483)
(0.0161405 -0.0075053 -0 0.0161403 -0 0.0161404)
(0.0161413 -0.0075057 -0 0.0161413 -0 0.0161413)
(0.0161376 -0.00750404 -0 0.0161378 -0 0.0161377)
(0.0161453 -0.00750758 -0 0.0161454 -0 0.0161453)
(0.0166084 -0.00772283 -0 0.0166081 -0 0.0166082)
(0.016609 -0.00772318 -0 0.0166089 -0 0.016609)
(0.0166056 -0.00772164 -0 0.0166058 -0 0.0166057)
(0.0166141 -0.0077256 -0 0.0166142 -0 0.0166142)
(0.0170518 -0.007929 -0 0.0170515 -0 0.0170516)
(0.0170521 -0.00792917 -0 0.0170519 -0 0.017052)
(0.0170489 -0.0079278 -0 0.0170492 -0 0.017049)
(0.0170586 -0.00793227 -0 0.0170587 -0 0.0170586)
(0.0174731 -0.0081249 -0 0.0174727 -0 0.0174729)
(0.0174727 -0.00812478 -0 0.0174726 -0 0.0174726)
(0.01747 -0.00812361 -0 0.0174703 -0 0.0174701)
(0.0174809 -0.00812867 -0 0.0174811 -0 0.017481)
(0.0178736 -0.00831112 -0 0.0178732 -0 0.0178734)
(0.0178725 -0.00831064 -0 0.0178722 -0 0.0178723)
(0.0178702 -0.00830971 -0 0.0178705 -0 0.0178703)
(0.0178825 -0.00831541 -0 0.0178827 -0 0.0178826)
(0.0182538 -0.00848794 -0 0.0182534 -0 0.0182536)
(0.0182518 -0.008487 -0 0.0182515 -0 0.0182516)
(0.01825 -0.00848634 -0 0.0182504 -0 0.0182502)
(0.0182638 -0.00849273 -0 0.0182641 -0 0.0182639)
(0.0186138 -0.00865533 -0 0.0186134 -0 0.0186136)
(0.0186107 -0.00865389 -0 0.0186104 -0 0.0186105)
(0.0186095 -0.00865352 -0 0.0186099 -0 0.0186097)
(0.0186249 -0.00866063 -0 0.0186252 -0 0.018625)
(0.0189531 -0.00881311 -0 0.0189527 -0 0.0189529)
(0.0189488 -0.00881112 -0 0.0189485 -0 0.0189487)
(0.0189483 -0.00881104 -0 0.0189487 -0 0.0189485)
(0.0189652 -0.00881891 -0 0.0189655 -0 0.0189654)
(0.019271 -0.00896092 -0 0.0192706 -0 0.0192708)
(0.0192655 -0.00895839 -0 0.0192652 -0 0.0192654)
(0.0192655 -0.00895858 -0 0.019266 -0 0.0192658)
(0.0192842 -0.00896722 -0 0.0192845 -0 0.0192844)
(0.0195665 -0.00909834 -0 0.0195661 -0 0.0195663)
(0.0195599 -0.00909527 -0 0.0195596 -0 0.0195597)
(0.0195604 -0.0090957 -0 0.0195609 -0 0.0195607)
(0.0195808 -0.00910513 -0 0.0195811 -0 0.0195809)
(0.0198385 -0.00922481 -0 0.0198381 -0 0.0198383)
(0.0198308 -0.00922125 -0 0.0198305 -0 0.0198307)
(0.0198318 -0.0092219 -0 0.0198322 -0 0.019832)
(0.0198538 -0.00923207 -0 0.0198541 -0 0.0198539)
(0.0200857 -0.00933976 -0 0.0200853 -0 0.0200855)
(0.020077 -0.00933576 -0 0.0200768 -0 0.0200769)
(0.0200785 -0.00933658 -0 0.0200788 -0 0.0200787)
(0.0201019 -0.00934745 -0 0.0201022 -0 0.020102)
(0.0203066 -0.00944251 -0 0.0203063 -0 0.0203065)
(0.0202972 -0.00943814 -0 0.020297 -0 0.0202971)
(0.020299 -0.00943911 -0 0.0202993 -0 0.0202992)
(0.0203238 -0.00945059 -0 0.0203239 -0 0.0203238)
(0.0204998 -0.00953236 -0 0.0204996 -0 0.0204997)
(0.0204897 -0.00952771 -0 0.0204896 -0 0.0204897)
(0.0204919 -0.00952878 -0 0.0204921 -0 0.020492)
(0.0205177 -0.00954076 -0 0.0205178 -0 0.0205178)
(0.0206636 -0.00960855 -0 0.0206635 -0 0.0206636)
(0.0206531 -0.00960369 -0 0.0206531 -0 0.0206531)
(0.0206555 -0.00960485 -0 0.0206557 -0 0.0206556)
(0.0206821 -0.00961717 -0 0.0206821 -0 0.0206821)
(0.0207963 -0.00967026 -0 0.0207962 -0 0.0207963)
(0.0207855 -0.00966529 -0 0.0207856 -0 0.0207856)
(0.0207882 -0.0096665 -0 0.0207882 -0 0.0207882)
(0.0208151 -0.00967898 -0 0.0208149 -0 0.020815)
(0.0208959 -0.0097166 -0 0.020896 -0 0.0208959)
(0.0208851 -0.00971163 -0 0.0208853 -0 0.0208852)
(0.0208879 -0.00971286 -0 0.0208878 -0 0.0208879)
(0.0209146 -0.00972525 -0 0.0209144 -0 0.0209145)
(0.0209604 -0.00974663 -0 0.0209606 -0 0.0209605)
(0.0209498 -0.00974176 -0 0.0209502 -0 0.02095)
(0.0209528 -0.00974299 -0 0.0209525 -0 0.0209527)
(0.0209787 -0.00975499 -0 0.0209783 -0 0.0209785)
(0.0209877 -0.00975935 -0 0.020988 -0 0.0209879)
(0.0209775 -0.00975468 -0 0.020978 -0 0.0209778)
(0.0209805 -0.00975585 -0 0.0209801 -0 0.0209803)
(0.0210048 -0.00976713 -0 0.0210043 -0 0.0210046)
(0.0209754 -0.00975366 -0 0.0209759 -0 0.0209756)
(0.0209659 -0.0097493 -0 0.0209666 -0 0.0209662)
(0.0209687 -0.00975035 -0 0.0209682 -0 0.0209685)
(0.0209906 -0.00976049 -0 0.02099 -0 0.0209903)
(0.020921 -0.0097284 -0 0.0209216 -0 0.0209213)
(0.0209124 -0.00972444 -0 0.0209132 -0 0.0209128)
(0.0209148 -0.00972525 -0 0.0209142 -0 0.0209145)
(0.0209332 -0.00973375 -0 0.0209324 -0 0.0209328)
(0.0208216 -0.00968222 -0 0.0208223 -0 0.020822)
(0.0208141 -0.00967876 -0 0.020815 -0 0.0208145)
(0.0208158 -0.00967918 -0 0.0208151 -0 0.0208154)
(0.02083 -0.00968574 -0 0.0208291 -0 0.0208295)
(0.0206771 -0.009615 -0 0.0206778 -0 0.0206774)
(0.0206707 -0.00961209 -0 0.0206717 -0 0.0206712)
(0.0206717 -0.00961217 -0 0.020671 -0 0.0206713)
(0.0206821 -0.00961694 -0 0.0206811 -0 0.0206816)
(0.0204883 -0.00952722 -0 0.020489 -0 0.0204887)
(0.0204831 -0.00952489 -0 0.0204842 -0 0.0204836)
(0.0204835 -0.00952468 -0 0.0204828 -0 0.0204832)
(0.0204904 -0.00952781 -0 0.0204894 -0 0.0204899)
(0.0202563 -0.00941931 -0 0.0202569 -0 0.0202566)
(0.0202522 -0.00941754 -0 0.0202533 -0 0.0202528)
(0.0202521 -0.0094171 -0 0.0202515 -0 0.0202518)
(0.0202559 -0.00941874 -0 0.0202548 -0 0.0202554)
(0.0199817 -0.00929161 -0 0.0199822 -0 0.0199819)
(0.0199787 -0.00929038 -0 0.0199799 -0 0.0199793)
(0.0199783 -0.00928976 -0 0.0199777 -0 0.019978)
(0.0199792 -0.00929005 -0 0.019978 -0 0.0199786)
(0.0196651 -0.00914438 -0 0.0196656 -0 0.0196653)
(0.0196632 -0.00914366 -0 0.0196643 -0 0.0196638)
(0.0196625 -0.00914293 -0 0.019662 -0 0.0196622)
(0.0196608 -0.00914199 -0 0.0196596 -0 0.0196602)
(0.019307 -0.00897782 -0 0.0193073 -0 0.0193071)
(0.019306 -0.00897756 -0 0.0193071 -0 0.0193066)
(0.0193051 -0.00897677 -0 0.0193047 -0 0.0193049)
(0.0193011 -0.00897474 -0 0.0193 -0 0.0193005)
(0.0189074 -0.00879202 -0 0.0189077 -0 0.0189076)
(0.0189073 -0.00879216 -0 0.0189084 -0 0.0189079)
(0.0189063 -0.00879137 -0 0.018906 -0 0.0189062)
(0.0189002 -0.00878836 -0 0.0188992 -0 0.0188997)
(0.0184665 -0.00858699 -0 0.0184668 -0 0.0184666)
(0.0184672 -0.00858748 -0 0.0184682 -0 0.0184677)
(0.0184662 -0.00858672 -0 0.0184659 -0 0.0184661)
(0.0184583 -0.00858288 -0 0.0184573 -0 0.0184578)
(0.0179842 -0.00836267 -0 0.0179843 -0 0.0179842)
(0.0179854 -0.00836344 -0 0.0179864 -0 0.0179859)
(0.0179845 -0.00836275 -0 0.0179843 -0 0.0179844)
(0.0179751 -0.00835822 -0 0.0179742 -0 0.0179747)
(0.01746 -0.00811894 -0 0.0174601 -0 0.0174601)
(0.0174618 -0.00811993 -0 0.0174627 -0 0.0174622)
(0.017461 -0.00811935 -0 0.0174609 -0 0.017461)
(0.0174505 -0.00811427 -0 0.0174496 -0 0.01745)
(0.0168938 -0.00785563 -0 0.0168939 -0 0.0168938)
(0.016896 -0.00785683 -0 0.0168968 -0 0.0168964)
(0.0168954 -0.00785634 -0 0.0168953 -0 0.0168954)
(0.016884 -0.00785086 -0 0.0168832 -0 0.0168836)
(0.016285 -0.00757255 -0 0.0162851 -0 0.0162851)
(0.0162877 -0.00757396 -0 0.0162885 -0 0.0162881)
(0.0162873 -0.00757354 -0 0.0162871 -0 0.0162872)
(0.0162753 -0.00756782 -0 0.0162745 -0 0.0162749)
(0.0156332 -0.00726948 -0 0.0156334 -0 0.0156333)
(0.0156365 -0.0072711 -0 0.0156371 -0 0.0156368)
(0.0156361 -0.00727072 -0 0.0156359 -0 0.015636)
(0.0156238 -0.0072649 -0 0.0156231 -0 0.0156234)
(0.0149377 -0.00694612 -0 0.014938 -0 0.0149379)
(0.0149414 -0.00694789 -0 0.014942 -0 0.0149417)
(0.0149411 -0.00694755 -0 0.0149408 -0 0.014941)
(0.0149287 -0.00694174 -0 0.0149282 -0 0.0149285)
(0.0141975 -0.00660196 -0 0.014198 -0 0.0141978)
(0.0142015 -0.0066038 -0 0.014202 -0 0.0142017)
(0.0142014 -0.00660354 -0 0.014201 -0 0.0142012)
(0.0141891 -0.00659782 -0 0.0141886 -0 0.0141889)
(0.0134111 -0.00623629 -0 0.0134117 -0 0.0134114)
(0.0134152 -0.00623813 -0 0.0134155 -0 0.0134153)
(0.0134154 -0.00623801 -0 0.0134148 -0 0.0134151)
(0.0134033 -0.00623246 -0 0.013403 -0 0.0134031)
(0.0125766 -0.00584831 -0 0.0125774 -0 0.012577)
(0.0125807 -0.00585008 -0 0.0125809 -0 0.0125808)
(0.0125814 -0.00585018 -0 0.0125806 -0 0.012581)
(0.0125697 -0.00584486 -0 0.0125695 -0 0.0125696)
(0.011688 -0.00543513 -0 0.0116888 -0 0.0116885)
(0.011692 -0.00543676 -0 0.0116919 -0 0.011692)
(0.0116932 -0.00543716 -0 0.0116924 -0 0.0116928)
(0.0116818 -0.00543204 -0 0.0116818 -0 0.0116818)
(0.0106987 -0.00400398 -0 0.0106991 -0 0.0106989)
(0.0107018 -0.00399829 -0 0.0107015 -0 0.0107017)
(0.0107038 -0.00401016 -0 0.0107035 -0 0.0107036)
(0.0106911 -0.0039608 -0 0.0106913 -0 0.0106912)
(0.00957146 -0.00269907 -0 0.00957141 -0 0.00957142)
(0.00957261 -0.00268881 -0 0.00957237 -0 0.00957248)
(0.00957584 -0.00269682 -0 0.00957589 -0 0.00957588)
(0.00956062 -0.00266502 -0 0.00956086 -0 0.00956075)
(0.00835474 -0.00177475 -0 0.00835459 -0 0.00835466)
(0.00835355 -0.00176074 -0 0.00835341 -0 0.00835348)
(0.00835752 -0.00176523 -0 0.00835768 -0 0.0083576)
(0.00834191 -0.0017452 -0 0.00834205 -0 0.00834198)
(0.00713308 -0.00116745 -0 0.00713294 -0 0.00713301)
(0.00712988 -0.00115266 -0 0.00712983 -0 0.00712986)
(0.00713433 -0.00115595 -0 0.00713446 -0 0.00713439)
(0.00712008 -0.0011441 -0 0.00712014 -0 0.00712011)
(0.00597423 -0.000772415 -0 0.00597414 -0 0.00597418)
(0.00597058 -0.000765931 -0 0.00597057 -0 0.00597058)
(0.00597555 -0.000768586 -0 0.00597564 -0 0.00597559)
(0.00596357 -0.000761613 -0 0.00596359 -0 0.00596358)
(0.00491826 -0.000518843 -0 0.0049182 -0 0.00491823)
(0.00491518 -0.000516125 -0 0.00491517 -0 0.00491518)
(0.00492089 -0.000519776 -0 0.00492094 -0 0.00492092)
(0.00491154 -0.000515733 -0 0.00491155 -0 0.00491154)
(0.00398875 -0.000355464 -0 0.00398872 -0 0.00398873)
(0.00398667 -0.000354758 -0 0.00398666 -0 0.00398667)
(0.00399282 -0.000357602 -0 0.00399284 -0 0.00399283)
(0.00398618 -0.000355581 -0 0.00398619 -0 0.00398618)
(0.00319328 -0.000246738 -0 0.00319327 -0 0.00319328)
(0.00319222 -0.000247031 -0 0.00319222 -0 0.00319222)
(0.00319841 -0.000249163 -0 0.00319842 -0 0.00319841)
(0.00319421 -0.000248217 -0 0.00319422 -0 0.00319421)
(0.00252733 -0.000172116 -0 0.00252732 -0 0.00252733)
(0.00252709 -0.000172725 -0 0.00252708 -0 0.00252708)
(0.00253295 -0.000174302 -0 0.00253295 -0 0.00253295)
(0.00253069 -0.000173876 -0 0.0025307 -0 0.0025307)
(0.00197963 -0.000119848 -0 0.00197963 -0 0.00197963)
(0.00197983 -0.00012045 -0 0.00197982 -0 0.00197982)
(0.00198513 -0.000121594 -0 0.00198514 -0 0.00198513)
(0.00198421 -0.000121422 -0 0.00198422 -0 0.00198422)
(0.00153587 -8.29717e-05 -0 0.00153587 -0 0.00153587)
(0.00153623 -8.34765e-05 -0 0.00153622 -0 0.00153623)
(0.00154081 -8.42644e-05 -0 0.00154081 -0 0.00154081)
(0.00154076 -8.42195e-05 -0 0.00154076 -0 0.00154076)
(0.00118103 -5.6991e-05 -0 0.00118103 -0 0.00118103)
(0.00118142 -5.73827e-05 -0 0.00118142 -0 0.00118142)
(0.0011852 -5.78971e-05 -0 0.0011852 -0 0.0011852)
(0.0011857 -5.7915e-05 -0 0.0011857 -0 0.0011857)
(0.00090075 -3.87955e-05 -0 0.000900751 -0 0.00090075)
(0.000901114 -3.9084e-05 -0 0.000901113 -0 0.000901113)
(0.000904087 -3.94046e-05 -0 0.000904086 -0 0.000904087)
(0.000904907 -3.94488e-05 -0 0.000904908 -0 0.000904907)
(0.000681887 -2.61569e-05 -0 0.000681888 -0 0.000681888)
(0.00068219 -2.636e-05 -0 0.00068219 -0 0.00068219)
(0.000684437 -2.65527e-05 -0 0.000684436 -0 0.000684437)
(0.000685396 -2.66028e-05 -0 0.000685396 -0 0.000685396)
(0.000512836 -1.74566e-05 -0 0.000512836 -0 0.000512836)
(0.00051307 -1.75935e-05 -0 0.00051307 -0 0.00051307)
(0.000514704 -1.77053e-05 -0 0.000514704 -0 0.000514704)
(0.000515678 -1.7751e-05 -0 0.000515678 -0 0.000515678)
(0.000383619 -1.15251e-05 -0 0.000383619 -0 0.000383619)
(0.00038379 -1.16153e-05 -0 0.00038379 -0 0.00038379)
(0.000384937 -1.16781e-05 -0 0.000384937 -0 0.000384937)
(0.000385848 -1.17154e-05 -0 0.000385848 -0 0.000385848)
(0.000285859 -7.5184e-06 -0 0.000285859 -0 0.000285859)
(0.000285978 -7.57626e-06 -0 0.000285978 -0 0.000285978)
(0.000286756 -7.61056e-06 -0 0.000286756 -0 0.000286756)
(0.000287563 -7.63923e-06 -0 0.000287563 -0 0.000287563)
(0.000212674 -4.83838e-06 -0 0.000212674 -0 0.000212674)
(0.000212754 -4.87421e-06 -0 0.000212754 -0 0.000212754)
(0.000213265 -4.89228e-06 -0 0.000213265 -0 0.000213265)
(0.000213953 -4.91318e-06 -0 0.000213953 -0 0.000213953)
(0.000158534 -3.06378e-06 -0 0.000158534 -0 0.000158534)
(0.000158585 -3.08548e-06 -0 0.000158585 -0 0.000158585)
(0.000158913 -3.09458e-06 -0 0.000158913 -0 0.000158913)
(0.000159481 -3.10922e-06 -0 0.000159481 -0 0.000159481)
(0.000119088 -1.9005e-06 -0 0.000119088 -0 0.000119088)
(0.000119123 -1.91361e-06 -0 0.000119123 -0 0.000119123)
(0.000119331 -1.91806e-06 -0 0.000119331 -0 0.000119331)
(0.00011979 -1.9279e-06 -0 0.00011979 -0 0.00011979)
(9.10112e-05 -1.14494e-06 -0 9.10112e-05 -0 9.10112e-05)
(9.10375e-05 -1.15298e-06 -0 9.10375e-05 -0 9.10375e-05)
(9.11731e-05 -1.15519e-06 -0 9.11731e-05 -0 9.11731e-05)
(9.15381e-05 -1.16147e-06 -0 9.1538e-05 -0 9.1538e-05)
(7.18505e-05 -6.55859e-07 -0 7.18505e-05 -0 7.18505e-05)
(7.18737e-05 -6.60748e-07 -0 7.18737e-05 -0 7.18737e-05)
(7.19675e-05 -6.61909e-07 -0 7.19675e-05 -0 7.19675e-05)
(7.22616e-05 -6.65623e-07 -0 7.22615e-05 -0 7.22615e-05)
(5.99072e-05 -3.32808e-07 -0 5.99072e-05 -0 5.99072e-05)
(5.99295e-05 -3.35453e-07 -0 5.99295e-05 -0 5.99295e-05)
(6.0001e-05 -3.3605e-07 -0 6.0001e-05 -0 6.0001e-05)
(6.02481e-05 -3.37951e-07 -0 6.0248e-05 -0 6.0248e-05)
(5.41449e-05 -1.01257e-07 -0 5.41449e-05 -0 5.41449e-05)
(5.41669e-05 -1.02087e-07 -0 5.41669e-05 -0 5.41669e-05)
(5.42289e-05 -1.02274e-07 -0 5.42289e-05 -0 5.42289e-05)
(5.44523e-05 -1.02849e-07 -0 5.44523e-05 -0 5.44523e-05)
)
;

boundaryField
{
    inlet
    {
        type            cyclic;
    }
    outlet
    {
        type            cyclic;
    }
    fixedWalls-bottom
    {
        type            kqRWallFunction;
        value           nonuniform List<symmTensor> 4((8.4348e-09 -0 -0 8.4348e-09 -0 8.4348e-09) (8.4164e-09 -0 -0 8.4164e-09 -0 8.4164e-09) (8.41014e-09 -0 -0 8.41014e-09 -0 8.41014e-09) (8.42471e-09 -0 -0 8.42471e-09 -0 8.42471e-09));
    }
    fixedWalls-top
    {
        type            symmetry;
    }
    frontAndBack
    {
        type            empty;
    }
}


// ************************************************************************* //
