/*--------------------------------*- C++ -*----------------------------------*\
  =========                 |
  \\      /  F ield         | OpenFOAM: The Open Source CFD Toolbox
   \\    /   O peration     | Website:  https://openfoam.org
    \\  /    A nd           | Version:  10
     \\/     M anipulation  |
\*---------------------------------------------------------------------------*/
FoamFile
{
    format      ascii;
    class       volScalarField;
    location    "2500";
    object      p;
}
// * * * * * * * * * * * * * * * * * * * * * * * * * * * * * * * * * * * * * //

dimensions      [0 2 -2 0 0 0 0];

internalField   nonuniform List<scalar> 
400
(
-3.03496e-16
-8.16276e-12
-7.42164e-12
7.35679e-13
6.99717e-15
-8.16268e-12
-7.42988e-12
7.35599e-13
1.66877e-14
-8.16288e-12
-7.43977e-12
7.35797e-13
2.64056e-14
-8.16312e-12
-7.44941e-12
7.3604e-13
3.58462e-14
-8.16335e-12
-7.45884e-12
7.36275e-13
4.5151e-14
-8.16351e-12
-7.46813e-12
7.3643e-13
5.41925e-14
-8.16346e-12
-7.4772e-12
7.3638e-13
6.28935e-14
-8.1631e-12
-7.48589e-12
7.36023e-13
7.10582e-14
-8.16231e-12
-7.49407e-12
7.35236e-13
7.86168e-14
-8.161e-12
-7.50162e-12
7.33929e-13
8.53878e-14
-8.15906e-12
-7.50841e-12
7.31987e-13
9.13065e-14
-8.1564e-12
-7.51432e-12
7.29335e-13
9.62005e-14
-8.15294e-12
-7.51923e-12
7.25873e-13
1.00014e-13
-8.14861e-12
-7.52304e-12
7.21545e-13
1.02587e-13
-8.14334e-12
-7.52563e-12
7.16272e-13
1.03877e-13
-8.13709e-12
-7.52691e-12
7.10024e-13
1.03743e-13
-8.12981e-12
-7.52679e-12
7.02745e-13
1.02159e-13
-8.12149e-12
-7.5252e-12
6.9443e-13
9.90051e-14
-8.1121e-12
-7.52207e-12
6.85045e-13
9.42757e-14
-8.10167e-12
-7.51733e-12
6.74611e-13
8.7876e-14
-8.09017e-12
-7.51094e-12
6.63116e-13
7.98234e-14
-8.07765e-12
-7.50289e-12
6.50602e-13
7.00515e-14
-8.06412e-12
-7.49313e-12
6.37073e-13
5.85997e-14
-8.04963e-12
-7.48167e-12
6.22588e-13
4.54296e-14
-8.0342e-12
-7.46851e-12
6.07163e-13
3.06057e-14
-8.0179e-12
-7.45369e-12
5.90866e-13
1.41146e-14
-8.00075e-12
-7.43721e-12
5.73719e-13
-3.95746e-15
-7.98282e-12
-7.41913e-12
5.55793e-13
-2.36002e-14
-7.96413e-12
-7.3995e-12
5.37107e-13
-4.47105e-14
-7.94475e-12
-7.37839e-12
5.17731e-13
-6.72585e-14
-7.92469e-12
-7.35585e-12
4.97677e-13
-9.11287e-14
-7.90402e-12
-7.33198e-12
4.77006e-13
-1.1628e-13
-7.88273e-12
-7.30684e-12
4.55721e-13
-1.42588e-13
-7.86087e-12
-7.28053e-12
4.33871e-13
-1.70007e-13
-7.83844e-12
-7.25313e-12
4.11444e-13
-1.98412e-13
-7.81547e-12
-7.22472e-12
3.88477e-13
-2.27757e-13
-7.79193e-12
-7.19539e-12
3.64947e-13
-2.57921e-13
-7.76786e-12
-7.16523e-12
3.40878e-13
-2.88862e-13
-7.74321e-12
-7.1343e-12
3.16237e-13
-3.20471e-13
-7.718e-12
-7.10269e-12
2.91035e-13
-3.52712e-13
-7.69219e-12
-7.07047e-12
2.65232e-13
-3.8549e-13
-7.66579e-12
-7.03769e-12
2.38837e-13
-4.18778e-13
-7.63875e-12
-7.00442e-12
2.11802e-13
-4.52497e-13
-7.61107e-12
-6.97071e-12
1.84132e-13
-4.86629e-13
-7.58272e-12
-6.93659e-12
1.55786e-13
-5.21107e-13
-7.55369e-12
-6.90212e-12
1.26768e-13
-5.55924e-13
-7.52395e-12
-6.86731e-12
9.70415e-14
-5.91026e-13
-7.49352e-12
-6.83222e-12
6.66152e-14
-6.26409e-13
-7.46235e-12
-6.79686e-12
3.54579e-14
-6.62028e-13
-7.43047e-12
-6.76125e-12
3.58847e-15
-6.97887e-13
-7.39786e-12
-6.7254e-12
-2.90129e-14
-7.33944e-13
-7.36455e-12
-6.68936e-12
-6.23199e-14
-7.70203e-13
-7.33051e-12
-6.65312e-12
-9.63432e-14
-8.06624e-13
-7.2958e-12
-6.61671e-12
-1.31049e-13
-8.4321e-13
-7.2604e-12
-6.58014e-12
-1.66436e-13
-8.79925e-13
-7.22436e-12
-6.54344e-12
-2.02463e-13
-9.16765e-13
-7.18769e-12
-6.50661e-12
-2.39122e-13
-9.53691e-13
-7.15044e-12
-6.4697e-12
-2.76363e-13
-9.90695e-13
-7.11262e-12
-6.43271e-12
-3.14168e-13
-1.02774e-12
-7.0743e-12
-6.39568e-12
-3.52483e-13
-1.06481e-12
-7.03548e-12
-6.35863e-12
-3.91286e-13
-1.10186e-12
-6.99624e-12
-6.32159e-12
-4.30516e-13
-1.13888e-12
-6.95661e-12
-6.28459e-12
-4.70143e-13
-1.17581e-12
-6.91663e-12
-6.24767e-12
-5.10109e-13
-1.21264e-12
-6.87635e-12
-6.21086e-12
-5.50377e-13
-1.24932e-12
-6.83583e-12
-6.1742e-12
-5.90887e-13
-1.28582e-12
-6.79511e-12
-6.13772e-12
-6.31595e-13
-1.3221e-12
-6.75426e-12
-6.10146e-12
-6.72439e-13
-1.35811e-12
-6.71331e-12
-6.06547e-12
-7.13373e-13
-1.39382e-12
-6.67234e-12
-6.02978e-12
-7.54331e-13
-1.42918e-12
-6.6314e-12
-5.99443e-12
-7.95263e-13
-1.46416e-12
-6.59056e-12
-5.95947e-12
-8.36096e-13
-1.4987e-12
-6.54986e-12
-5.92495e-12
-8.76777e-13
-1.53277e-12
-6.5094e-12
-5.8909e-12
-9.17233e-13
-1.56631e-12
-6.46922e-12
-5.85737e-12
-9.57403e-13
-1.59928e-12
-6.42941e-12
-5.82442e-12
-9.97206e-13
-1.63162e-12
-6.39003e-12
-5.79209e-12
-1.03658e-12
-1.66331e-12
-6.35116e-12
-5.76043e-12
-1.07543e-12
-1.69427e-12
-6.31287e-12
-5.72949e-12
-1.11371e-12
-1.72446e-12
-6.27526e-12
-5.69931e-12
-1.15132e-12
-1.75384e-12
-6.23839e-12
-5.66995e-12
-1.18818e-12
-1.78233e-12
-6.20236e-12
-5.64147e-12
-1.2242e-12
-1.80991e-12
-6.16725e-12
-5.61392e-12
-1.2593e-12
-1.8365e-12
-6.13316e-12
-5.58734e-12
-1.29339e-12
-1.86205e-12
-6.10017e-12
-5.5618e-12
-1.32637e-12
-1.88651e-12
-6.06839e-12
-5.53736e-12
-1.35815e-12
-1.90981e-12
-6.0379e-12
-5.51407e-12
-1.38862e-12
-1.9319e-12
-6.00883e-12
-5.492e-12
-1.41769e-12
-1.95271e-12
-5.98125e-12
-5.4712e-12
-1.44526e-12
-1.97218e-12
-5.9553e-12
-5.45175e-12
-1.47121e-12
-1.99025e-12
-5.93107e-12
-5.43369e-12
-1.49543e-12
-2.00685e-12
-5.90869e-12
-5.41709e-12
-1.51781e-12
-2.02193e-12
-5.88826e-12
-5.40203e-12
-1.53823e-12
-2.0354e-12
-5.86992e-12
-5.38856e-12
-1.55657e-12
-2.04721e-12
-5.85377e-12
-5.37676e-12
-1.57272e-12
-2.05728e-12
-5.83994e-12
-5.3667e-12
-1.58655e-12
-2.06555e-12
-5.82856e-12
-5.35843e-12
-1.59792e-12
-2.07193e-12
-5.81978e-12
-5.35206e-12
-1.6067e-12
-2.07623e-12
-5.81382e-12
-5.34776e-12
-1.61265e-12
-2.07833e-12
-5.81088e-12
-5.34566e-12
-1.6156e-12
)
;

boundaryField
{
    inlet
    {
        type            cyclic;
    }
    outlet
    {
        type            cyclic;
    }
    fixedWalls-bottom
    {
        type            zeroGradient;
    }
    fixedWalls-top
    {
        type            symmetry;
    }
    frontAndBack
    {
        type            empty;
    }
}


// ************************************************************************* //
