/*--------------------------------*- C++ -*----------------------------------*\
  =========                 |
  \\      /  F ield         | OpenFOAM: The Open Source CFD Toolbox
   \\    /   O peration     | Website:  https://openfoam.org
    \\  /    A nd           | Version:  10
     \\/     M anipulation  |
\*---------------------------------------------------------------------------*/
FoamFile
{
    format      ascii;
    class       surfaceScalarField;
    location    "2500";
    object      phi;
}
// * * * * * * * * * * * * * * * * * * * * * * * * * * * * * * * * * * * * * //

dimensions      [0 3 -1 0 0 0 0];

internalField   nonuniform List<scalar> 
696
(
6.39286e-05
5.05237e-15
6.39286e-05
3.13441e-16
6.39286e-05
-4.29832e-15
-3.14212e-16
0.000194803
1.85506e-14
0.000194803
7.84391e-16
0.000194803
-1.7786e-14
-7.86588e-16
0.000330586
4.17587e-14
0.000330586
1.18791e-15
0.000330586
-4.10039e-14
-1.19148e-15
0.000471407
7.50983e-14
0.000471407
1.41008e-15
0.000471407
-7.43327e-14
-1.415e-15
0.000617398
1.18773e-13
0.000617398
1.44396e-15
0.000617398
-1.18017e-13
-1.45024e-15
0.000768692
1.72937e-13
0.000768692
1.36614e-15
0.000768692
-1.72171e-13
-1.37368e-15
0.000925425
2.37512e-13
0.000925425
1.36707e-15
0.000925425
-2.36758e-13
-1.37586e-15
0.00108774
3.12362e-13
0.00108774
1.71009e-15
0.00108774
-3.116e-13
-1.72015e-15
0.00125576
3.97111e-13
0.00125576
2.76694e-15
0.00125576
-3.9636e-13
-2.77811e-15
0.00142965
4.91318e-13
0.00142965
4.95937e-15
0.00142965
-4.9056e-13
-4.97157e-15
0.00160955
5.94304e-13
0.00160955
8.79624e-15
0.00160955
-5.93558e-13
-8.80983e-15
0.0017956
7.0533e-13
0.0017956
1.48001e-14
0.0017956
-7.04578e-13
-1.4815e-14
0.00198795
8.23427e-13
0.00198795
2.35515e-14
0.00198795
-8.22687e-13
-2.35678e-14
0.00218676
9.47579e-13
0.00218676
3.55989e-14
0.00218676
-9.46834e-13
-3.5616e-14
0.00239218
1.07656e-12
0.00239218
5.15096e-14
0.00239218
-1.07583e-12
-5.15285e-14
0.00260436
1.20913e-12
0.00260436
7.1771e-14
0.00260436
-1.20839e-12
-7.17906e-14
0.00282347
1.34385e-12
0.00282347
9.68445e-14
0.00282347
-1.34313e-12
-9.68659e-14
0.00304966
1.47933e-12
0.00304966
1.27069e-13
0.00304966
-1.4786e-12
-1.27091e-13
0.00328311
1.61402e-12
0.00328311
1.6272e-13
0.00328311
-1.61331e-12
-1.62743e-13
0.00352396
1.74644e-12
0.00352396
2.03905e-13
0.00352396
-1.74573e-12
-2.0393e-13
0.00377239
1.87504e-12
0.00377239
2.50646e-13
0.00377239
-1.87434e-12
-2.50673e-13
0.00402856
1.99838e-12
0.00402856
3.02771e-13
0.00402856
-1.99767e-12
-3.02799e-13
0.00429265
2.11498e-12
0.00429265
3.60004e-13
0.00429265
-2.11429e-12
-3.60034e-13
0.00456482
2.22357e-12
0.00456482
4.21871e-13
0.00456482
-2.22288e-12
-4.21902e-13
0.00484525
2.32289e-12
0.00484525
4.87799e-13
0.00484525
-2.32221e-12
-4.87832e-13
0.00513412
2.41192e-12
0.00513412
5.57028e-13
0.00513412
-2.41123e-12
-5.57061e-13
0.00543159
2.48971e-12
0.00543159
6.28727e-13
0.00543159
-2.48904e-12
-6.28761e-13
0.00573784
2.5556e-12
0.00573784
7.01903e-13
0.00573784
-2.55493e-12
-7.01939e-13
0.00605305
2.60906e-12
0.00605305
7.75551e-13
0.00605305
-2.6084e-12
-7.75587e-13
0.00637739
2.64983e-12
0.00637739
8.48541e-13
0.00637739
-2.64918e-12
-8.48578e-13
0.00671105
2.67782e-12
0.00671105
9.1979e-13
0.00671105
-2.67718e-12
-9.19828e-13
0.00705421
2.69323e-12
0.00705421
9.88153e-13
0.00705421
-2.69258e-12
-9.88192e-13
0.00740703
2.69639e-12
0.00740703
1.05259e-12
0.00740703
-2.69576e-12
-1.05263e-12
0.0077697
2.68793e-12
0.0077697
1.11206e-12
0.0077697
-2.68729e-12
-1.1121e-12
0.0081424
2.66857e-12
0.0081424
1.16569e-12
0.0081424
-2.66795e-12
-1.16574e-12
0.00852531
2.63928e-12
0.00852531
1.21268e-12
0.00852531
-2.63866e-12
-1.21273e-12
0.00891859
2.60109e-12
0.00891859
1.25242e-12
0.00891859
-2.60048e-12
-1.25247e-12
0.00932244
2.5552e-12
0.00932244
1.28439e-12
0.00932244
-2.55459e-12
-1.28445e-12
0.00973701
2.5028e-12
0.00973701
1.30835e-12
0.00973701
-2.5022e-12
-1.3084e-12
0.0101625
2.44521e-12
0.0101625
1.32413e-12
0.0101625
-2.44461e-12
-1.32419e-12
0.010599
2.38365e-12
0.010599
1.33184e-12
0.010599
-2.38307e-12
-1.3319e-12
0.0110468
2.3194e-12
0.0110468
1.33166e-12
0.0110468
-2.31882e-12
-1.33172e-12
0.011506
2.25357e-12
0.011506
1.32403e-12
0.011506
-2.253e-12
-1.32409e-12
0.0119768
2.18728e-12
0.0119768
1.30944e-12
0.0119768
-2.18671e-12
-1.3095e-12
0.0124592
2.12144e-12
0.0124592
1.28858e-12
0.0124592
-2.12088e-12
-1.28864e-12
0.0129536
2.05689e-12
0.0129536
1.26215e-12
0.0129536
-2.05634e-12
-1.26221e-12
0.0134599
1.99429e-12
0.0134599
1.23098e-12
0.0134599
-1.99374e-12
-1.23105e-12
0.0139785
1.93416e-12
0.0139785
1.19589e-12
0.0139785
-1.93361e-12
-1.19596e-12
0.0145093
1.87683e-12
0.0145093
1.15775e-12
0.0145093
-1.8763e-12
-1.15783e-12
0.0150526
1.82257e-12
0.0150526
1.11737e-12
0.0150526
-1.82204e-12
-1.11744e-12
0.0156084
1.7714e-12
0.0156084
1.07556e-12
0.0156084
-1.77088e-12
-1.07563e-12
0.0161768
1.72331e-12
0.0161768
1.03299e-12
0.0161768
-1.7228e-12
-1.03307e-12
0.0167581
1.67814e-12
0.0167581
9.90363e-13
0.0167581
-1.67764e-12
-9.9044e-13
0.0173522
1.63567e-12
0.0173522
9.48177e-13
0.0173522
-1.63518e-12
-9.48251e-13
0.0179592
1.5956e-12
0.0179592
9.0692e-13
0.0179592
-1.59512e-12
-9.06995e-13
0.0185793
1.55763e-12
0.0185793
8.66915e-13
0.0185793
-1.55714e-12
-8.66993e-13
0.0192125
1.52136e-12
0.0192125
8.2846e-13
0.0192125
-1.52089e-12
-8.28536e-13
0.0198588
1.48649e-12
0.0198588
7.91681e-13
0.0198588
-1.48603e-12
-7.91752e-13
0.0205182
1.45266e-12
0.0205182
7.56699e-13
0.0205182
-1.45222e-12
-7.56764e-13
0.0211909
1.41959e-12
0.0211909
7.23486e-13
0.0211909
-1.41915e-12
-7.23549e-13
0.0218767
1.38697e-12
0.0218767
6.92053e-13
0.0218767
-1.38655e-12
-6.92118e-13
0.0225757
1.35461e-12
0.0225757
6.6227e-13
0.0225757
-1.3542e-12
-6.6233e-13
0.0232879
1.32229e-12
0.0232879
6.3405e-13
0.0232879
-1.32189e-12
-6.34111e-13
0.0240131
1.28989e-12
0.0240131
6.07223e-13
0.0240131
-1.28949e-12
-6.07286e-13
0.0247514
1.2573e-12
0.0247514
5.81676e-13
0.0247514
-1.2569e-12
-5.81745e-13
0.0255025
1.22446e-12
0.0255025
5.57255e-13
0.0255025
-1.22407e-12
-5.57322e-13
0.0262664
1.19133e-12
0.0262664
5.33839e-13
0.0262664
-1.19095e-12
-5.33909e-13
0.027043
1.15791e-12
0.027043
5.11277e-13
0.027043
-1.15754e-12
-5.11345e-13
0.027832
1.1242e-12
0.027832
4.89486e-13
0.027832
-1.12385e-12
-4.89555e-13
0.0286332
1.09024e-12
0.0286332
4.68356e-13
0.0286332
-1.08989e-12
-4.68424e-13
0.0294464
1.05604e-12
0.0294464
4.47838e-13
0.0294464
-1.0557e-12
-4.47902e-13
0.0302713
1.02163e-12
0.0302713
4.27859e-13
0.0302713
-1.02131e-12
-4.2792e-13
0.0311076
9.87049e-13
0.0311076
4.08371e-13
0.0311076
-9.86754e-13
-4.08422e-13
0.031955
9.52329e-13
0.031955
3.89336e-13
0.031955
-9.52047e-13
-3.89381e-13
0.032813
9.17499e-13
0.032813
3.70746e-13
0.032813
-9.17229e-13
-3.70787e-13
0.0336812
8.82581e-13
0.0336812
3.52539e-13
0.0336812
-8.82315e-13
-3.52582e-13
0.0345592
8.47592e-13
0.0345592
3.34726e-13
0.0345592
-8.47328e-13
-3.3478e-13
0.0354463
8.12531e-13
0.0354463
3.17296e-13
0.0354463
-8.12276e-13
-3.17348e-13
0.036342
7.77403e-13
0.036342
3.00247e-13
0.036342
-7.77164e-13
-3.00293e-13
0.0372457
7.42226e-13
0.0372457
2.83538e-13
0.0372457
-7.41996e-13
-2.83588e-13
0.0381566
7.06987e-13
0.0381566
2.67201e-13
0.0381566
-7.06772e-13
-2.67242e-13
0.0390741
6.71692e-13
0.0390741
2.51184e-13
0.0390741
-6.71484e-13
-2.51224e-13
0.0399971
6.36303e-13
0.0399971
2.35491e-13
0.0399971
-6.36115e-13
-2.35533e-13
0.040925
6.00823e-13
0.040925
2.20105e-13
0.040925
-6.00641e-13
-2.20139e-13
0.0418566
5.65226e-13
0.0418566
2.05018e-13
0.0418566
-5.65068e-13
-2.05043e-13
0.0427909
5.295e-13
0.0427909
1.90186e-13
0.0427909
-5.29345e-13
-1.9022e-13
0.0437269
4.93625e-13
0.0437269
1.75639e-13
0.0437269
-4.93497e-13
-1.75661e-13
0.0446632
4.57592e-13
0.0446632
1.61311e-13
0.0446632
-4.57473e-13
-1.61333e-13
0.0455986
4.21381e-13
0.0455986
1.47235e-13
0.0455986
-4.21272e-13
-1.47265e-13
0.0465316
3.84982e-13
0.0465316
1.33373e-13
0.0465316
-3.8489e-13
-1.33393e-13
0.0474608
3.48363e-13
0.0474608
1.19685e-13
0.0474608
-3.48284e-13
-1.1971e-13
0.0483845
3.11495e-13
0.0483845
1.06166e-13
0.0483845
-3.1142e-13
-1.06195e-13
0.0493009
2.74337e-13
0.0493009
9.27646e-14
0.0493009
-2.74273e-13
-9.27902e-14
0.0502083
2.36841e-13
0.0502083
7.94434e-14
0.0502083
-2.36779e-13
-7.94739e-14
0.0511046
1.98915e-13
0.0511046
6.62085e-14
0.0511046
-1.98874e-13
-6.62243e-14
0.0519878
1.60504e-13
0.0519878
5.29917e-14
0.0519878
-1.60469e-13
-5.30086e-14
0.0528555
1.2147e-13
0.0528555
3.97994e-14
0.0528555
-1.21444e-13
-3.98172e-14
0.0537054
8.16235e-14
0.0537054
2.66709e-14
0.0537054
-8.16076e-14
-2.66835e-14
0.0545349
4.07244e-14
0.0545349
1.37946e-14
0.0545349
-4.07153e-14
-1.38012e-14
0.0553412
0.0553412
0.0553412
)
;

boundaryField
{
    inlet
    {
        type            cyclic;
        value           nonuniform List<scalar> 
100
(
-0.0553412
-0.0545349
-0.0537054
-0.0528555
-0.0519878
-0.0511046
-0.0502083
-0.0493009
-0.0483845
-0.0474608
-0.0465316
-0.0455986
-0.0446632
-0.0437269
-0.0427909
-0.0418566
-0.040925
-0.0399971
-0.0390741
-0.0381566
-0.0372457
-0.036342
-0.0354463
-0.0345592
-0.0336812
-0.032813
-0.031955
-0.0311076
-0.0302713
-0.0294464
-0.0286332
-0.027832
-0.027043
-0.0262664
-0.0255025
-0.0247514
-0.0240131
-0.0232879
-0.0225757
-0.0218767
-0.0211909
-0.0205182
-0.0198588
-0.0192125
-0.0185793
-0.0179592
-0.0173522
-0.0167581
-0.0161768
-0.0156084
-0.0150526
-0.0145093
-0.0139785
-0.0134599
-0.0129536
-0.0124592
-0.0119768
-0.011506
-0.0110468
-0.010599
-0.0101625
-0.00973701
-0.00932244
-0.00891859
-0.00852531
-0.0081424
-0.0077697
-0.00740703
-0.00705421
-0.00671105
-0.00637739
-0.00605305
-0.00573784
-0.00543159
-0.00513412
-0.00484525
-0.00456482
-0.00429265
-0.00402856
-0.00377239
-0.00352396
-0.00328311
-0.00304966
-0.00282347
-0.00260436
-0.00239218
-0.00218676
-0.00198795
-0.0017956
-0.00160955
-0.00142965
-0.00125576
-0.00108774
-0.000925425
-0.000768692
-0.000617398
-0.000471407
-0.000330586
-0.000194803
-6.39286e-05
)
;
    }
    outlet
    {
        type            cyclic;
        value           nonuniform List<scalar> 
100
(
0.0553412
0.0545349
0.0537054
0.0528555
0.0519878
0.0511046
0.0502083
0.0493009
0.0483845
0.0474608
0.0465316
0.0455986
0.0446632
0.0437269
0.0427909
0.0418566
0.040925
0.0399971
0.0390741
0.0381566
0.0372457
0.036342
0.0354463
0.0345592
0.0336812
0.032813
0.031955
0.0311076
0.0302713
0.0294464
0.0286332
0.027832
0.027043
0.0262664
0.0255025
0.0247514
0.0240131
0.0232879
0.0225757
0.0218767
0.0211909
0.0205182
0.0198588
0.0192125
0.0185793
0.0179592
0.0173522
0.0167581
0.0161768
0.0156084
0.0150526
0.0145093
0.0139785
0.0134599
0.0129536
0.0124592
0.0119768
0.011506
0.0110468
0.010599
0.0101625
0.00973701
0.00932244
0.00891859
0.00852531
0.0081424
0.0077697
0.00740703
0.00705421
0.00671105
0.00637739
0.00605305
0.00573784
0.00543159
0.00513412
0.00484525
0.00456482
0.00429265
0.00402856
0.00377239
0.00352396
0.00328311
0.00304966
0.00282347
0.00260436
0.00239218
0.00218676
0.00198795
0.0017956
0.00160955
0.00142965
0.00125576
0.00108774
0.000925425
0.000768692
0.000617398
0.000471407
0.000330586
0.000194803
6.39286e-05
)
;
    }
    fixedWalls-bottom
    {
        type            calculated;
        value           uniform 0;
    }
    fixedWalls-top
    {
        type            symmetry;
        value           uniform 0;
    }
    frontAndBack
    {
        type            empty;
        value           nonuniform List<scalar> 0();
    }
}


// ************************************************************************* //
