/*--------------------------------*- C++ -*----------------------------------*\
  =========                 |
  \\      /  F ield         | OpenFOAM: The Open Source CFD Toolbox
   \\    /   O peration     | Website:  https://openfoam.org
    \\  /    A nd           | Version:  10
     \\/     M anipulation  |
\*---------------------------------------------------------------------------*/
FoamFile
{
    format      ascii;
    class       volSymmTensorField;
    location    "2500";
    object      R;
}
// * * * * * * * * * * * * * * * * * * * * * * * * * * * * * * * * * * * * * //

dimensions      [0 2 -2 0 0 0 0];

internalField   nonuniform List<symmTensor> 
400
(
(1.4803e-16 -9.63579e-21 -0 1.4803e-16 -0 1.4803e-16)
(1.4803e-16 -9.63579e-21 -0 1.4803e-16 -0 1.4803e-16)
(1.4803e-16 -9.63579e-21 -0 1.4803e-16 -0 1.4803e-16)
(1.4803e-16 -9.63579e-21 -0 1.4803e-16 -0 1.4803e-16)
(1.4803e-16 -5.84857e-20 -0 1.4803e-16 -0 1.4803e-16)
(1.4803e-16 -5.84857e-20 -0 1.4803e-16 -0 1.4803e-16)
(1.4803e-16 -5.84857e-20 -0 1.4803e-16 -0 1.4803e-16)
(1.4803e-16 -5.84857e-20 -0 1.4803e-16 -0 1.4803e-16)
(1.4803e-16 -1.76516e-19 -0 1.4803e-16 -0 1.4803e-16)
(1.4803e-16 -1.76516e-19 -0 1.4803e-16 -0 1.4803e-16)
(1.4803e-16 -1.76516e-19 -0 1.4803e-16 -0 1.4803e-16)
(1.4803e-16 -1.76516e-19 -0 1.4803e-16 -0 1.4803e-16)
(1.4803e-16 -3.7775e-19 -0 1.4803e-16 -0 1.4803e-16)
(1.4803e-16 -3.7775e-19 -0 1.4803e-16 -0 1.4803e-16)
(1.4803e-16 -3.7775e-19 -0 1.4803e-16 -0 1.4803e-16)
(1.4803e-16 -3.7775e-19 -0 1.4803e-16 -0 1.4803e-16)
(1.4803e-16 -6.67229e-19 -0 1.4803e-16 -0 1.4803e-16)
(1.4803e-16 -6.67232e-19 -0 1.4803e-16 -0 1.4803e-16)
(1.4803e-16 -6.67231e-19 -0 1.4803e-16 -0 1.4803e-16)
(1.4803e-16 -6.67234e-19 -0 1.4803e-16 -0 1.4803e-16)
(1.4803e-16 -1.04452e-18 -0 1.4803e-16 -0 1.4803e-16)
(1.4803e-16 -1.04454e-18 -0 1.4803e-16 -0 1.4803e-16)
(1.4803e-16 -1.04453e-18 -0 1.4803e-16 -0 1.4803e-16)
(1.4803e-16 -1.04454e-18 -0 1.4803e-16 -0 1.4803e-16)
(1.4803e-16 -1.50657e-18 -0 1.4803e-16 -0 1.4803e-16)
(1.4803e-16 -1.5066e-18 -0 1.4803e-16 -0 1.4803e-16)
(1.4803e-16 -1.50659e-18 -0 1.4803e-16 -0 1.4803e-16)
(1.4803e-16 -1.50662e-18 -0 1.4803e-16 -0 1.4803e-16)
(1.4803e-16 -2.05194e-18 -0 1.4803e-16 -0 1.4803e-16)
(1.4803e-16 -2.05201e-18 -0 1.4803e-16 -0 1.4803e-16)
(1.4803e-16 -2.05198e-18 -0 1.4803e-16 -0 1.4803e-16)
(1.4803e-16 -2.05204e-18 -0 1.4803e-16 -0 1.4803e-16)
(1.4803e-16 -2.68166e-18 -0 1.4803e-16 -0 1.4803e-16)
(1.4803e-16 -2.68177e-18 -0 1.4803e-16 -0 1.4803e-16)
(1.4803e-16 -2.68173e-18 -0 1.4803e-16 -0 1.4803e-16)
(1.4803e-16 -2.68181e-18 -0 1.4803e-16 -0 1.4803e-16)
(1.4803e-16 -3.39798e-18 -0 1.4803e-16 -0 1.4803e-16)
(1.4803e-16 -3.39812e-18 -0 1.4803e-16 -0 1.4803e-16)
(1.4803e-16 -3.39807e-18 -0 1.4803e-16 -0 1.4803e-16)
(1.4803e-16 -3.39817e-18 -0 1.4803e-16 -0 1.4803e-16)
(1.4803e-16 -4.20356e-18 -0 1.4803e-16 -0 1.4803e-16)
(1.4803e-16 -4.20374e-18 -0 1.4803e-16 -0 1.4803e-16)
(1.4803e-16 -4.20367e-18 -0 1.4803e-16 -0 1.4803e-16)
(1.4803e-16 -4.20379e-18 -0 1.4803e-16 -0 1.4803e-16)
(1.4803e-16 -5.10124e-18 -0 1.4803e-16 -0 1.4803e-16)
(1.4803e-16 -5.10144e-18 -0 1.4803e-16 -0 1.4803e-16)
(1.4803e-16 -5.10137e-18 -0 1.4803e-16 -0 1.4803e-16)
(1.4803e-16 -5.1015e-18 -0 1.4803e-16 -0 1.4803e-16)
(1.4803e-16 -6.09413e-18 -0 1.4803e-16 -0 1.4803e-16)
(1.4803e-16 -6.09435e-18 -0 1.4803e-16 -0 1.4803e-16)
(1.4803e-16 -6.09426e-18 -0 1.4803e-16 -0 1.4803e-16)
(1.4803e-16 -6.09439e-18 -0 1.4803e-16 -0 1.4803e-16)
(1.4803e-16 -7.18535e-18 -0 1.4803e-16 -0 1.4803e-16)
(1.4803e-16 -7.18559e-18 -0 1.4803e-16 -0 1.4803e-16)
(1.4803e-16 -7.18549e-18 -0 1.4803e-16 -0 1.4803e-16)
(1.4803e-16 -7.1856e-18 -0 1.4803e-16 -0 1.4803e-16)
(1.4803e-16 -8.37692e-18 -0 1.4803e-16 -0 1.4803e-16)
(1.4803e-16 -8.37719e-18 -0 1.4803e-16 -0 1.4803e-16)
(1.4803e-16 -8.37709e-18 -0 1.4803e-16 -0 1.4803e-16)
(1.4803e-16 -8.37714e-18 -0 1.4803e-16 -0 1.4803e-16)
(1.4803e-16 -9.66901e-18 -0 1.4803e-16 -0 1.4803e-16)
(1.4803e-16 -9.66933e-18 -0 1.4803e-16 -0 1.4803e-16)
(1.4803e-16 -9.66922e-18 -0 1.4803e-16 -0 1.4803e-16)
(1.4803e-16 -9.66918e-18 -0 1.4803e-16 -0 1.4803e-16)
(1.4803e-16 -1.10602e-17 -0 1.4803e-16 -0 1.4803e-16)
(1.4803e-16 -1.10607e-17 -0 1.4803e-16 -0 1.4803e-16)
(1.4803e-16 -1.10605e-17 -0 1.4803e-16 -0 1.4803e-16)
(1.4803e-16 -1.10603e-17 -0 1.4803e-16 -0 1.4803e-16)
(1.4803e-16 -1.25484e-17 -0 1.4803e-16 -0 1.4803e-16)
(1.4803e-16 -1.2549e-17 -0 1.4803e-16 -0 1.4803e-16)
(1.4803e-16 -1.25488e-17 -0 1.4803e-16 -0 1.4803e-16)
(1.4803e-16 -1.25484e-17 -0 1.4803e-16 -0 1.4803e-16)
(1.4803e-16 -1.41304e-17 -0 1.4803e-16 -0 1.4803e-16)
(1.4803e-16 -1.41313e-17 -0 1.4803e-16 -0 1.4803e-16)
(1.4803e-16 -1.41311e-17 -0 1.4803e-16 -0 1.4803e-16)
(1.4803e-16 -1.41303e-17 -0 1.4803e-16 -0 1.4803e-16)
(1.4803e-16 -1.58027e-17 -0 1.4803e-16 -0 1.4803e-16)
(1.4803e-16 -1.5804e-17 -0 1.4803e-16 -0 1.4803e-16)
(1.4803e-16 -1.58037e-17 -0 1.4803e-16 -0 1.4803e-16)
(1.4803e-16 -1.58024e-17 -0 1.4803e-16 -0 1.4803e-16)
(1.4803e-16 -1.75605e-17 -0 1.4803e-16 -0 1.4803e-16)
(1.4803e-16 -1.75623e-17 -0 1.4803e-16 -0 1.4803e-16)
(1.4803e-16 -1.7562e-17 -0 1.4803e-16 -0 1.4803e-16)
(1.4803e-16 -1.756e-17 -0 1.4803e-16 -0 1.4803e-16)
(1.4803e-16 -1.93983e-17 -0 1.4803e-16 -0 1.4803e-16)
(1.4803e-16 -1.94009e-17 -0 1.4803e-16 -0 1.4803e-16)
(1.4803e-16 -1.94005e-17 -0 1.4803e-16 -0 1.4803e-16)
(1.4803e-16 -1.93977e-17 -0 1.4803e-16 -0 1.4803e-16)
(1.4803e-16 -2.13096e-17 -0 1.4803e-16 -0 1.4803e-16)
(1.4803e-16 -2.13132e-17 -0 1.4803e-16 -0 1.4803e-16)
(1.4803e-16 -2.13127e-17 -0 1.4803e-16 -0 1.4803e-16)
(1.4803e-16 -2.13088e-17 -0 1.4803e-16 -0 1.4803e-16)
(1.4803e-16 -2.32871e-17 -0 1.4803e-16 -0 1.4803e-16)
(1.4803e-16 -2.32918e-17 -0 1.4803e-16 -0 1.4803e-16)
(1.4803e-16 -2.32913e-17 -0 1.4803e-16 -0 1.4803e-16)
(1.4803e-16 -2.32861e-17 -0 1.4803e-16 -0 1.4803e-16)
(1.4803e-16 -2.53222e-17 -0 1.4803e-16 -0 1.4803e-16)
(1.4803e-16 -2.53283e-17 -0 1.4803e-16 -0 1.4803e-16)
(1.4803e-16 -2.53278e-17 -0 1.4803e-16 -0 1.4803e-16)
(1.4803e-16 -2.5321e-17 -0 1.4803e-16 -0 1.4803e-16)
(1.4803e-16 -2.74057e-17 -0 1.4803e-16 -0 1.4803e-16)
(1.4803e-16 -2.74135e-17 -0 1.4803e-16 -0 1.4803e-16)
(1.4803e-16 -2.74131e-17 -0 1.4803e-16 -0 1.4803e-16)
(1.4803e-16 -2.74043e-17 -0 1.4803e-16 -0 1.4803e-16)
(1.4803e-16 -2.95275e-17 -0 1.4803e-16 -0 1.4803e-16)
(1.4803e-16 -2.95373e-17 -0 1.4803e-16 -0 1.4803e-16)
(1.4803e-16 -2.95371e-17 -0 1.4803e-16 -0 1.4803e-16)
(1.4803e-16 -2.95261e-17 -0 1.4803e-16 -0 1.4803e-16)
(1.4803e-16 -3.16769e-17 -0 1.4803e-16 -0 1.4803e-16)
(1.4803e-16 -3.16889e-17 -0 1.4803e-16 -0 1.4803e-16)
(1.4803e-16 -3.16889e-17 -0 1.4803e-16 -0 1.4803e-16)
(1.4803e-16 -3.16755e-17 -0 1.4803e-16 -0 1.4803e-16)
(1.4803e-16 -3.38425e-17 -0 1.4803e-16 -0 1.4803e-16)
(1.4803e-16 -3.38569e-17 -0 1.4803e-16 -0 1.4803e-16)
(1.4803e-16 -3.38574e-17 -0 1.4803e-16 -0 1.4803e-16)
(1.4803e-16 -3.38413e-17 -0 1.4803e-16 -0 1.4803e-16)
(1.4803e-16 -3.60124e-17 -0 1.4803e-16 -0 1.4803e-16)
(1.4803e-16 -3.60293e-17 -0 1.4803e-16 -0 1.4803e-16)
(1.4803e-16 -3.60305e-17 -0 1.4803e-16 -0 1.4803e-16)
(1.4803e-16 -3.60115e-17 -0 1.4803e-16 -0 1.4803e-16)
(1.4803e-16 -3.81744e-17 -0 1.4803e-16 -0 1.4803e-16)
(1.4803e-16 -3.81939e-17 -0 1.4803e-16 -0 1.4803e-16)
(1.4803e-16 -3.8196e-17 -0 1.4803e-16 -0 1.4803e-16)
(1.4803e-16 -3.81741e-17 -0 1.4803e-16 -0 1.4803e-16)
(1.4803e-16 -4.03163e-17 -0 1.4803e-16 -0 1.4803e-16)
(1.4803e-16 -4.03381e-17 -0 1.4803e-16 -0 1.4803e-16)
(1.4803e-16 -4.03416e-17 -0 1.4803e-16 -0 1.4803e-16)
(1.4803e-16 -4.03168e-17 -0 1.4803e-16 -0 1.4803e-16)
(1.4803e-16 -4.24255e-17 -0 1.4803e-16 -0 1.4803e-16)
(1.4803e-16 -4.24495e-17 -0 1.4803e-16 -0 1.4803e-16)
(1.4803e-16 -4.24547e-17 -0 1.4803e-16 -0 1.4803e-16)
(1.4803e-16 -4.24271e-17 -0 1.4803e-16 -0 1.4803e-16)
(1.4803e-16 -4.44898e-17 -0 1.4803e-16 -0 1.4803e-16)
(1.4803e-16 -4.45156e-17 -0 1.4803e-16 -0 1.4803e-16)
(1.4803e-16 -4.45229e-17 -0 1.4803e-16 -0 1.4803e-16)
(1.4803e-16 -4.44927e-17 -0 1.4803e-16 -0 1.4803e-16)
(1.4803e-16 -4.64969e-17 -0 1.4803e-16 -0 1.4803e-16)
(1.4803e-16 -4.65242e-17 -0 1.4803e-16 -0 1.4803e-16)
(1.4803e-16 -4.6534e-17 -0 1.4803e-16 -0 1.4803e-16)
(1.4803e-16 -4.65014e-17 -0 1.4803e-16 -0 1.4803e-16)
(1.4803e-16 -4.84352e-17 -0 1.4803e-16 -0 1.4803e-16)
(1.4803e-16 -4.84635e-17 -0 1.4803e-16 -0 1.4803e-16)
(1.4803e-16 -4.84762e-17 -0 1.4803e-16 -0 1.4803e-16)
(1.4803e-16 -4.84417e-17 -0 1.4803e-16 -0 1.4803e-16)
(1.4803e-16 -5.02935e-17 -0 1.4803e-16 -0 1.4803e-16)
(1.4803e-16 -5.03222e-17 -0 1.4803e-16 -0 1.4803e-16)
(1.4803e-16 -5.03382e-17 -0 1.4803e-16 -0 1.4803e-16)
(1.4803e-16 -5.03023e-17 -0 1.4803e-16 -0 1.4803e-16)
(1.4803e-16 -5.20612e-17 -0 1.4803e-16 -0 1.4803e-16)
(1.4803e-16 -5.20898e-17 -0 1.4803e-16 -0 1.4803e-16)
(1.4803e-16 -5.21093e-17 -0 1.4803e-16 -0 1.4803e-16)
(1.4803e-16 -5.20727e-17 -0 1.4803e-16 -0 1.4803e-16)
(1.4803e-16 -5.37288e-17 -0 1.4803e-16 -0 1.4803e-16)
(1.4803e-16 -5.37565e-17 -0 1.4803e-16 -0 1.4803e-16)
(1.4803e-16 -5.37799e-17 -0 1.4803e-16 -0 1.4803e-16)
(1.4803e-16 -5.37433e-17 -0 1.4803e-16 -0 1.4803e-16)
(1.4803e-16 -5.52874e-17 -0 1.4803e-16 -0 1.4803e-16)
(1.4803e-16 -5.53136e-17 -0 1.4803e-16 -0 1.4803e-16)
(1.4803e-16 -5.53409e-17 -0 1.4803e-16 -0 1.4803e-16)
(1.4803e-16 -5.53053e-17 -0 1.4803e-16 -0 1.4803e-16)
(1.4803e-16 -5.67294e-17 -0 1.4803e-16 -0 1.4803e-16)
(1.4803e-16 -5.67536e-17 -0 1.4803e-16 -0 1.4803e-16)
(1.4803e-16 -5.67846e-17 -0 1.4803e-16 -0 1.4803e-16)
(1.4803e-16 -5.67509e-17 -0 1.4803e-16 -0 1.4803e-16)
(1.4803e-16 -5.80483e-17 -0 1.4803e-16 -0 1.4803e-16)
(1.4803e-16 -5.80699e-17 -0 1.4803e-16 -0 1.4803e-16)
(1.4803e-16 -5.81044e-17 -0 1.4803e-16 -0 1.4803e-16)
(1.4803e-16 -5.80739e-17 -0 1.4803e-16 -0 1.4803e-16)
(1.4803e-16 -5.92388e-17 -0 1.4803e-16 -0 1.4803e-16)
(1.4803e-16 -5.92577e-17 -0 1.4803e-16 -0 1.4803e-16)
(1.4803e-16 -5.9295e-17 -0 1.4803e-16 -0 1.4803e-16)
(1.4803e-16 -5.92688e-17 -0 1.4803e-16 -0 1.4803e-16)
(1.4803e-16 -6.0297e-17 -0 1.4803e-16 -0 1.4803e-16)
(1.4803e-16 -6.03135e-17 -0 1.4803e-16 -0 1.4803e-16)
(1.4803e-16 -6.03523e-17 -0 1.4803e-16 -0 1.4803e-16)
(1.4803e-16 -6.03322e-17 -0 1.4803e-16 -0 1.4803e-16)
(1.4803e-16 -6.12206e-17 -0 1.4803e-16 -0 1.4803e-16)
(1.4803e-16 -6.12349e-17 -0 1.4803e-16 -0 1.4803e-16)
(1.4803e-16 -6.12739e-17 -0 1.4803e-16 -0 1.4803e-16)
(1.4803e-16 -6.12616e-17 -0 1.4803e-16 -0 1.4803e-16)
(1.4803e-16 -6.20087e-17 -0 1.4803e-16 -0 1.4803e-16)
(1.4803e-16 -6.20211e-17 -0 1.4803e-16 -0 1.4803e-16)
(1.4803e-16 -6.20588e-17 -0 1.4803e-16 -0 1.4803e-16)
(1.4803e-16 -6.20562e-17 -0 1.4803e-16 -0 1.4803e-16)
(1.4803e-16 -6.26623e-17 -0 1.4803e-16 -0 1.4803e-16)
(1.4803e-16 -6.2673e-17 -0 1.4803e-16 -0 1.4803e-16)
(1.4803e-16 -6.27074e-17 -0 1.4803e-16 -0 1.4803e-16)
(1.4803e-16 -6.27168e-17 -0 1.4803e-16 -0 1.4803e-16)
(1.4803e-16 -6.31837e-17 -0 1.4803e-16 -0 1.4803e-16)
(1.4803e-16 -6.31927e-17 -0 1.4803e-16 -0 1.4803e-16)
(1.4803e-16 -6.32239e-17 -0 1.4803e-16 -0 1.4803e-16)
(1.4803e-16 -6.32454e-17 -0 1.4803e-16 -0 1.4803e-16)
(1.4803e-16 -6.35765e-17 -0 1.4803e-16 -0 1.4803e-16)
(1.4803e-16 -6.35841e-17 -0 1.4803e-16 -0 1.4803e-16)
(1.4803e-16 -6.36118e-17 -0 1.4803e-16 -0 1.4803e-16)
(1.4803e-16 -6.36459e-17 -0 1.4803e-16 -0 1.4803e-16)
(1.4803e-16 -6.38457e-17 -0 1.4803e-16 -0 1.4803e-16)
(1.4803e-16 -6.38522e-17 -0 1.4803e-16 -0 1.4803e-16)
(1.4803e-16 -6.38769e-17 -0 1.4803e-16 -0 1.4803e-16)
(1.4803e-16 -6.39231e-17 -0 1.4803e-16 -0 1.4803e-16)
(1.4803e-16 -6.39977e-17 -0 1.4803e-16 -0 1.4803e-16)
(1.4803e-16 -6.40035e-17 -0 1.4803e-16 -0 1.4803e-16)
(1.4803e-16 -6.40262e-17 -0 1.4803e-16 -0 1.4803e-16)
(1.4803e-16 -6.40832e-17 -0 1.4803e-16 -0 1.4803e-16)
(1.4803e-16 -6.40399e-17 -0 1.4803e-16 -0 1.4803e-16)
(1.4803e-16 -6.40452e-17 -0 1.4803e-16 -0 1.4803e-16)
(1.4803e-16 -6.40672e-17 -0 1.4803e-16 -0 1.4803e-16)
(1.4803e-16 -6.41337e-17 -0 1.4803e-16 -0 1.4803e-16)
(1.4803e-16 -6.39807e-17 -0 1.4803e-16 -0 1.4803e-16)
(1.4803e-16 -6.39859e-17 -0 1.4803e-16 -0 1.4803e-16)
(1.4803e-16 -6.40076e-17 -0 1.4803e-16 -0 1.4803e-16)
(1.4803e-16 -6.40833e-17 -0 1.4803e-16 -0 1.4803e-16)
(1.4803e-16 -6.38292e-17 -0 1.4803e-16 -0 1.4803e-16)
(1.4803e-16 -6.38345e-17 -0 1.4803e-16 -0 1.4803e-16)
(1.4803e-16 -6.38564e-17 -0 1.4803e-16 -0 1.4803e-16)
(1.4803e-16 -6.39412e-17 -0 1.4803e-16 -0 1.4803e-16)
(1.4803e-16 -6.35952e-17 -0 1.4803e-16 -0 1.4803e-16)
(1.4803e-16 -6.36007e-17 -0 1.4803e-16 -0 1.4803e-16)
(1.4803e-16 -6.36233e-17 -0 1.4803e-16 -0 1.4803e-16)
(1.4803e-16 -6.37171e-17 -0 1.4803e-16 -0 1.4803e-16)
(1.4803e-16 -6.32888e-17 -0 1.4803e-16 -0 1.4803e-16)
(1.4803e-16 -6.32946e-17 -0 1.4803e-16 -0 1.4803e-16)
(1.4803e-16 -6.33181e-17 -0 1.4803e-16 -0 1.4803e-16)
(1.4803e-16 -6.34212e-17 -0 1.4803e-16 -0 1.4803e-16)
(1.4803e-16 -6.29203e-17 -0 1.4803e-16 -0 1.4803e-16)
(1.4803e-16 -6.29263e-17 -0 1.4803e-16 -0 1.4803e-16)
(1.4803e-16 -6.29511e-17 -0 1.4803e-16 -0 1.4803e-16)
(1.4803e-16 -6.30638e-17 -0 1.4803e-16 -0 1.4803e-16)
(1.4803e-16 -6.25002e-17 -0 1.4803e-16 -0 1.4803e-16)
(1.4803e-16 -6.25062e-17 -0 1.4803e-16 -0 1.4803e-16)
(1.4803e-16 -6.25328e-17 -0 1.4803e-16 -0 1.4803e-16)
(1.4803e-16 -6.26553e-17 -0 1.4803e-16 -0 1.4803e-16)
(1.4803e-16 -6.20388e-17 -0 1.4803e-16 -0 1.4803e-16)
(1.4803e-16 -6.20448e-17 -0 1.4803e-16 -0 1.4803e-16)
(1.4803e-16 -6.20734e-17 -0 1.4803e-16 -0 1.4803e-16)
(1.4803e-16 -6.2206e-17 -0 1.4803e-16 -0 1.4803e-16)
(1.4803e-16 -6.15468e-17 -0 1.4803e-16 -0 1.4803e-16)
(1.4803e-16 -6.15527e-17 -0 1.4803e-16 -0 1.4803e-16)
(1.4803e-16 -6.15835e-17 -0 1.4803e-16 -0 1.4803e-16)
(1.4803e-16 -6.17265e-17 -0 1.4803e-16 -0 1.4803e-16)
(1.4803e-16 -6.10348e-17 -0 1.4803e-16 -0 1.4803e-16)
(1.4803e-16 -6.10409e-17 -0 1.4803e-16 -0 1.4803e-16)
(1.4803e-16 -6.10738e-17 -0 1.4803e-16 -0 1.4803e-16)
(1.4803e-16 -6.12273e-17 -0 1.4803e-16 -0 1.4803e-16)
(1.4803e-16 -6.05138e-17 -0 1.4803e-16 -0 1.4803e-16)
(1.4803e-16 -6.052e-17 -0 1.4803e-16 -0 1.4803e-16)
(1.4803e-16 -6.05554e-17 -0 1.4803e-16 -0 1.4803e-16)
(1.4803e-16 -6.07192e-17 -0 1.4803e-16 -0 1.4803e-16)
(1.4803e-16 -5.99943e-17 -0 1.4803e-16 -0 1.4803e-16)
(1.4803e-16 -5.99999e-17 -0 1.4803e-16 -0 1.4803e-16)
(1.4803e-16 -6.00395e-17 -0 1.4803e-16 -0 1.4803e-16)
(1.4803e-16 -6.02126e-17 -0 1.4803e-16 -0 1.4803e-16)
(1.4803e-16 -5.94848e-17 -0 1.4803e-16 -0 1.4803e-16)
(1.4803e-16 -5.94885e-17 -0 1.4803e-16 -0 1.4803e-16)
(1.4803e-16 -5.95346e-17 -0 1.4803e-16 -0 1.4803e-16)
(1.4803e-16 -5.97164e-17 -0 1.4803e-16 -0 1.4803e-16)
(1.4803e-16 -5.899e-17 -0 1.4803e-16 -0 1.4803e-16)
(1.4803e-16 -5.89906e-17 -0 1.4803e-16 -0 1.4803e-16)
(1.4803e-16 -5.90459e-17 -0 1.4803e-16 -0 1.4803e-16)
(1.4803e-16 -5.92359e-17 -0 1.4803e-16 -0 1.4803e-16)
(1.4803e-16 -5.85109e-17 -0 1.4803e-16 -0 1.4803e-16)
(1.4803e-16 -5.85071e-17 -0 1.4803e-16 -0 1.4803e-16)
(1.4803e-16 -5.85751e-17 -0 1.4803e-16 -0 1.4803e-16)
(1.4803e-16 -5.87728e-17 -0 1.4803e-16 -0 1.4803e-16)
(1.4803e-16 -5.80459e-17 -0 1.4803e-16 -0 1.4803e-16)
(1.4803e-16 -5.8043e-17 -0 1.4803e-16 -0 1.4803e-16)
(1.4803e-16 -5.81185e-17 -0 1.4803e-16 -0 1.4803e-16)
(1.4803e-16 -5.83262e-17 -0 1.4803e-16 -0 1.4803e-16)
(1.4803e-16 -5.75918e-17 -0 1.4803e-16 -0 1.4803e-16)
(1.4803e-16 -5.75925e-17 -0 1.4803e-16 -0 1.4803e-16)
(1.4803e-16 -5.7673e-17 -0 1.4803e-16 -0 1.4803e-16)
(1.4803e-16 -5.78919e-17 -0 1.4803e-16 -0 1.4803e-16)
(1.4803e-16 -5.71462e-17 -0 1.4803e-16 -0 1.4803e-16)
(1.4803e-16 -5.71457e-17 -0 1.4803e-16 -0 1.4803e-16)
(1.4803e-16 -5.72307e-17 -0 1.4803e-16 -0 1.4803e-16)
(1.4803e-16 -5.74615e-17 -0 1.4803e-16 -0 1.4803e-16)
(1.4803e-16 -5.66948e-17 -0 1.4803e-16 -0 1.4803e-16)
(1.4803e-16 -5.66915e-17 -0 1.4803e-16 -0 1.4803e-16)
(1.4803e-16 -5.67808e-17 -0 1.4803e-16 -0 1.4803e-16)
(1.4803e-16 -5.70216e-17 -0 1.4803e-16 -0 1.4803e-16)
(1.4803e-16 -5.62178e-17 -0 1.4803e-16 -0 1.4803e-16)
(1.4803e-16 -5.62185e-17 -0 1.4803e-16 -0 1.4803e-16)
(1.4803e-16 -5.63107e-17 -0 1.4803e-16 -0 1.4803e-16)
(1.4803e-16 -5.65577e-17 -0 1.4803e-16 -0 1.4803e-16)
(1.4803e-16 -5.57107e-17 -0 1.4803e-16 -0 1.4803e-16)
(1.4803e-16 -5.57118e-17 -0 1.4803e-16 -0 1.4803e-16)
(1.4803e-16 -5.58059e-17 -0 1.4803e-16 -0 1.4803e-16)
(1.4803e-16 -5.60592e-17 -0 1.4803e-16 -0 1.4803e-16)
(1.4803e-16 -5.51634e-17 -0 1.4803e-16 -0 1.4803e-16)
(1.4803e-16 -5.51632e-17 -0 1.4803e-16 -0 1.4803e-16)
(1.4803e-16 -5.5258e-17 -0 1.4803e-16 -0 1.4803e-16)
(1.4803e-16 -5.55174e-17 -0 1.4803e-16 -0 1.4803e-16)
(1.4803e-16 -5.45691e-17 -0 1.4803e-16 -0 1.4803e-16)
(1.4803e-16 -5.45671e-17 -0 1.4803e-16 -0 1.4803e-16)
(1.4803e-16 -5.466e-17 -0 1.4803e-16 -0 1.4803e-16)
(1.4803e-16 -5.49264e-17 -0 1.4803e-16 -0 1.4803e-16)
(1.4803e-16 -5.3924e-17 -0 1.4803e-16 -0 1.4803e-16)
(1.4803e-16 -5.39222e-17 -0 1.4803e-16 -0 1.4803e-16)
(1.4803e-16 -5.40065e-17 -0 1.4803e-16 -0 1.4803e-16)
(1.4803e-16 -5.42816e-17 -0 1.4803e-16 -0 1.4803e-16)
(1.4803e-16 -5.32239e-17 -0 1.4803e-16 -0 1.4803e-16)
(1.4803e-16 -5.32308e-17 -0 1.4803e-16 -0 1.4803e-16)
(1.4803e-16 -5.32916e-17 -0 1.4803e-16 -0 1.4803e-16)
(1.4803e-16 -5.35793e-17 -0 1.4803e-16 -0 1.4803e-16)
(1.4803e-16 -5.24547e-17 -0 1.4803e-16 -0 1.4803e-16)
(1.4803e-16 -5.24731e-17 -0 1.4803e-16 -0 1.4803e-16)
(1.4803e-16 -5.25183e-17 -0 1.4803e-16 -0 1.4803e-16)
(1.4803e-16 -5.28155e-17 -0 1.4803e-16 -0 1.4803e-16)
(1.4803e-16 -5.16105e-17 -0 1.4803e-16 -0 1.4803e-16)
(1.4803e-16 -5.16533e-17 -0 1.4803e-16 -0 1.4803e-16)
(1.4803e-16 -5.16771e-17 -0 1.4803e-16 -0 1.4803e-16)
(1.4803e-16 -5.19872e-17 -0 1.4803e-16 -0 1.4803e-16)
(1.4803e-16 -5.06775e-17 -0 1.4803e-16 -0 1.4803e-16)
(1.4803e-16 -5.07601e-17 -0 1.4803e-16 -0 1.4803e-16)
(1.4803e-16 -5.07662e-17 -0 1.4803e-16 -0 1.4803e-16)
(1.4803e-16 -5.10904e-17 -0 1.4803e-16 -0 1.4803e-16)
(1.4803e-16 -4.97004e-17 -0 1.4803e-16 -0 1.4803e-16)
(1.4803e-16 -4.9782e-17 -0 1.4803e-16 -0 1.4803e-16)
(1.4803e-16 -4.97843e-17 -0 1.4803e-16 -0 1.4803e-16)
(1.4803e-16 -5.0119e-17 -0 1.4803e-16 -0 1.4803e-16)
(1.4803e-16 -4.86507e-17 -0 1.4803e-16 -0 1.4803e-16)
(1.4803e-16 -4.87299e-17 -0 1.4803e-16 -0 1.4803e-16)
(1.4803e-16 -4.87333e-17 -0 1.4803e-16 -0 1.4803e-16)
(1.4803e-16 -4.90633e-17 -0 1.4803e-16 -0 1.4803e-16)
(1.4803e-16 -4.75266e-17 -0 1.4803e-16 -0 1.4803e-16)
(1.4803e-16 -4.759e-17 -0 1.4803e-16 -0 1.4803e-16)
(1.4803e-16 -4.76045e-17 -0 1.4803e-16 -0 1.4803e-16)
(1.4803e-16 -4.79181e-17 -0 1.4803e-16 -0 1.4803e-16)
(1.4803e-16 -4.63335e-17 -0 1.4803e-16 -0 1.4803e-16)
(1.4803e-16 -4.63473e-17 -0 1.4803e-16 -0 1.4803e-16)
(1.4803e-16 -4.63908e-17 -0 1.4803e-16 -0 1.4803e-16)
(1.4803e-16 -4.66772e-17 -0 1.4803e-16 -0 1.4803e-16)
(1.4803e-16 -4.50079e-17 -0 1.4803e-16 -0 1.4803e-16)
(1.4803e-16 -4.50025e-17 -0 1.4803e-16 -0 1.4803e-16)
(1.4803e-16 -4.5088e-17 -0 1.4803e-16 -0 1.4803e-16)
(1.4803e-16 -4.5332e-17 -0 1.4803e-16 -0 1.4803e-16)
(1.4803e-16 -4.35703e-17 -0 1.4803e-16 -0 1.4803e-16)
(1.4803e-16 -4.35572e-17 -0 1.4803e-16 -0 1.4803e-16)
(1.4803e-16 -4.36793e-17 -0 1.4803e-16 -0 1.4803e-16)
(1.4803e-16 -4.38747e-17 -0 1.4803e-16 -0 1.4803e-16)
(1.4803e-16 -4.20122e-17 -0 1.4803e-16 -0 1.4803e-16)
(1.4803e-16 -4.20026e-17 -0 1.4803e-16 -0 1.4803e-16)
(1.4803e-16 -4.21266e-17 -0 1.4803e-16 -0 1.4803e-16)
(1.4803e-16 -4.23045e-17 -0 1.4803e-16 -0 1.4803e-16)
(1.4803e-16 -4.03236e-17 -0 1.4803e-16 -0 1.4803e-16)
(1.4803e-16 -4.03156e-17 -0 1.4803e-16 -0 1.4803e-16)
(1.4803e-16 -4.04388e-17 -0 1.4803e-16 -0 1.4803e-16)
(1.4803e-16 -4.06054e-17 -0 1.4803e-16 -0 1.4803e-16)
(1.4803e-16 -3.84937e-17 -0 1.4803e-16 -0 1.4803e-16)
(1.4803e-16 -3.84859e-17 -0 1.4803e-16 -0 1.4803e-16)
(1.4803e-16 -3.86074e-17 -0 1.4803e-16 -0 1.4803e-16)
(1.4803e-16 -3.87651e-17 -0 1.4803e-16 -0 1.4803e-16)
(1.4803e-16 -3.65107e-17 -0 1.4803e-16 -0 1.4803e-16)
(1.4803e-16 -3.65023e-17 -0 1.4803e-16 -0 1.4803e-16)
(1.4803e-16 -3.66206e-17 -0 1.4803e-16 -0 1.4803e-16)
(1.4803e-16 -3.67717e-17 -0 1.4803e-16 -0 1.4803e-16)
(1.4803e-16 -3.43626e-17 -0 1.4803e-16 -0 1.4803e-16)
(1.4803e-16 -3.43528e-17 -0 1.4803e-16 -0 1.4803e-16)
(1.4803e-16 -3.4465e-17 -0 1.4803e-16 -0 1.4803e-16)
(1.4803e-16 -3.46131e-17 -0 1.4803e-16 -0 1.4803e-16)
(1.4803e-16 -3.20376e-17 -0 1.4803e-16 -0 1.4803e-16)
(1.4803e-16 -3.20257e-17 -0 1.4803e-16 -0 1.4803e-16)
(1.4803e-16 -3.21261e-17 -0 1.4803e-16 -0 1.4803e-16)
(1.4803e-16 -3.22772e-17 -0 1.4803e-16 -0 1.4803e-16)
(1.4803e-16 -2.9524e-17 -0 1.4803e-16 -0 1.4803e-16)
(1.4803e-16 -2.95102e-17 -0 1.4803e-16 -0 1.4803e-16)
(1.4803e-16 -2.95935e-17 -0 1.4803e-16 -0 1.4803e-16)
(1.4803e-16 -2.97521e-17 -0 1.4803e-16 -0 1.4803e-16)
(1.4803e-16 -2.68114e-17 -0 1.4803e-16 -0 1.4803e-16)
(1.4803e-16 -2.68007e-17 -0 1.4803e-16 -0 1.4803e-16)
(1.4803e-16 -2.68634e-17 -0 1.4803e-16 -0 1.4803e-16)
(1.4803e-16 -2.70245e-17 -0 1.4803e-16 -0 1.4803e-16)
(1.4803e-16 -2.38907e-17 -0 1.4803e-16 -0 1.4803e-16)
(1.4803e-16 -2.38741e-17 -0 1.4803e-16 -0 1.4803e-16)
(1.4803e-16 -2.396e-17 -0 1.4803e-16 -0 1.4803e-16)
(1.4803e-16 -2.40767e-17 -0 1.4803e-16 -0 1.4803e-16)
(1.4803e-16 -2.0756e-17 -0 1.4803e-16 -0 1.4803e-16)
(1.4803e-16 -2.07415e-17 -0 1.4803e-16 -0 1.4803e-16)
(1.4803e-16 -2.0817e-17 -0 1.4803e-16 -0 1.4803e-16)
(1.4803e-16 -2.09216e-17 -0 1.4803e-16 -0 1.4803e-16)
(1.4803e-16 -1.74058e-17 -0 1.4803e-16 -0 1.4803e-16)
(1.4803e-16 -1.73952e-17 -0 1.4803e-16 -0 1.4803e-16)
(1.4803e-16 -1.74538e-17 -0 1.4803e-16 -0 1.4803e-16)
(1.4803e-16 -1.75515e-17 -0 1.4803e-16 -0 1.4803e-16)
(1.4803e-16 -1.38459e-17 -0 1.4803e-16 -0 1.4803e-16)
(1.4803e-16 -1.38439e-17 -0 1.4803e-16 -0 1.4803e-16)
(1.4803e-16 -1.38795e-17 -0 1.4803e-16 -0 1.4803e-16)
(1.4803e-16 -1.39686e-17 -0 1.4803e-16 -0 1.4803e-16)
(1.4803e-16 -1.00882e-17 -0 1.4803e-16 -0 1.4803e-16)
(1.4803e-16 -1.01077e-17 -0 1.4803e-16 -0 1.4803e-16)
(1.4803e-16 -1.01146e-17 -0 1.4803e-16 -0 1.4803e-16)
(1.4803e-16 -1.01803e-17 -0 1.4803e-16 -0 1.4803e-16)
(1.4803e-16 -6.15499e-18 -0 1.4803e-16 -0 1.4803e-16)
(1.4803e-16 -6.16982e-18 -0 1.4803e-16 -0 1.4803e-16)
(1.4803e-16 -6.17232e-18 -0 1.4803e-16 -0 1.4803e-16)
(1.4803e-16 -6.21278e-18 -0 1.4803e-16 -0 1.4803e-16)
(1.4803e-16 -2.0749e-18 -0 1.4803e-16 -0 1.4803e-16)
(1.4803e-16 -2.08086e-18 -0 1.4803e-16 -0 1.4803e-16)
(1.4803e-16 -2.0819e-18 -0 1.4803e-16 -0 1.4803e-16)
(1.4803e-16 -2.09535e-18 -0 1.4803e-16 -0 1.4803e-16)
)
;

boundaryField
{
    inlet
    {
        type            cyclic;
    }
    outlet
    {
        type            cyclic;
    }
    fixedWalls-bottom
    {
        type            kqRWallFunction;
        value           uniform (1.4803e-16 -0 -0 1.4803e-16 -0 1.4803e-16);
    }
    fixedWalls-top
    {
        type            symmetry;
    }
    frontAndBack
    {
        type            empty;
    }
}


// ************************************************************************* //
