/*--------------------------------*- C++ -*----------------------------------*\
  =========                 |
  \\      /  F ield         | OpenFOAM: The Open Source CFD Toolbox
   \\    /   O peration     | Website:  https://openfoam.org
    \\  /    A nd           | Version:  10
     \\/     M anipulation  |
\*---------------------------------------------------------------------------*/
FoamFile
{
    format      ascii;
    class       volVectorField;
    location    "2500";
    object      U;
}
// * * * * * * * * * * * * * * * * * * * * * * * * * * * * * * * * * * * * * //

dimensions      [0 1 -1 0 0 0 0];

internalField   nonuniform List<vector> 
400
(
(0.00692806 8.50235e-16 0)
(0.00692806 1.65079e-16 0)
(0.00692806 -4.63961e-16 0)
(0.00692806 -1.65545e-16 0)
(0.0208176 9.93144e-15 0)
(0.0208176 5.21254e-16 0)
(0.0208176 -9.10776e-15 0)
(0.0208176 -5.22601e-16 0)
(0.0348368 2.78152e-14 0)
(0.0348368 1.0215e-15 0)
(0.0348368 -2.7003e-14 0)
(0.0348368 -1.02433e-15 0)
(0.0489856 5.59592e-14 0)
(0.0489856 1.3449e-15 0)
(0.0489856 -5.51947e-14 0)
(0.0489856 -1.34916e-15 0)
(0.0632639 9.44775e-14 0)
(0.0632639 1.4588e-15 0)
(0.0632639 -9.37219e-14 0)
(0.0632639 -1.46442e-15 0)
(0.0776715 1.43438e-13 0)
(0.0776715 1.40272e-15 0)
(0.0776715 -1.42679e-13 0)
(0.0776715 -1.40965e-15 0)
(0.0922081 2.02872e-13 0)
(0.0922081 1.30772e-15 0)
(0.0922081 -2.02112e-13 0)
(0.0922081 -1.3159e-15 0)
(0.106873 2.72683e-13 0)
(0.106873 1.40162e-15 0)
(0.106873 -2.71925e-13 0)
(0.106873 -1.41104e-15 0)
(0.121667 3.52619e-13 0)
(0.121667 2.00432e-15 0)
(0.121667 -3.51862e-13 0)
(0.121667 -2.01494e-15 0)
(0.136589 4.4227e-13 0)
(0.136589 3.51669e-15 0)
(0.136589 -4.41515e-13 0)
(0.136589 -3.52835e-15 0)
(0.151637 5.41075e-13 0)
(0.151637 6.40759e-15 0)
(0.151637 -5.40322e-13 0)
(0.151637 -6.42046e-15 0)
(0.166813 6.48322e-13 0)
(0.166813 1.11979e-14 0)
(0.166813 -6.47573e-13 0)
(0.166813 -1.12121e-14 0)
(0.182115 7.63156e-13 0)
(0.182115 1.84438e-14 0)
(0.182115 -7.6241e-13 0)
(0.182115 -1.84593e-14 0)
(0.197542 8.84582e-13 0)
(0.197542 2.87155e-14 0)
(0.197542 -8.83839e-13 0)
(0.197542 -2.87322e-14 0)
(0.213094 1.01147e-12 0)
(0.213094 4.25763e-14 0)
(0.213094 -1.01074e-12 0)
(0.213094 -4.25943e-14 0)
(0.228769 1.14259e-12 0)
(0.228769 6.05592e-14 0)
(0.228769 -1.14186e-12 0)
(0.228769 -6.05785e-14 0)
(0.244567 1.2766e-12 0)
(0.244567 8.31435e-14 0)
(0.244567 -1.27587e-12 0)
(0.244567 -8.3164e-14 0)
(0.260486 1.41207e-12 0)
(0.260486 1.10735e-13 0)
(0.260486 -1.41135e-12 0)
(0.260486 -1.10757e-13 0)
(0.276526 1.54753e-12 0)
(0.276526 1.43644e-13 0)
(0.276526 -1.54681e-12 0)
(0.276526 -1.43666e-13 0)
(0.292685 1.68146e-12 0)
(0.292685 1.82066e-13 0)
(0.292685 -1.68075e-12 0)
(0.292685 -1.8209e-13 0)
(0.308961 1.81234e-12 0)
(0.308961 2.26068e-13 0)
(0.308961 -1.81162e-12 0)
(0.308961 -2.26094e-13 0)
(0.325354 1.93865e-12 0)
(0.325354 2.75577e-13 0)
(0.325354 -1.93794e-12 0)
(0.325354 -2.75604e-13 0)
(0.341862 2.05894e-12 0)
(0.341862 3.30368e-13 0)
(0.341862 -2.05824e-12 0)
(0.341862 -3.30397e-13 0)
(0.358482 2.17182e-12 0)
(0.358482 3.90067e-13 0)
(0.358482 -2.17113e-12 0)
(0.358482 -3.90097e-13 0)
(0.375214 2.27603e-12 0)
(0.375214 4.54146e-13 0)
(0.375214 -2.27534e-12 0)
(0.375214 -4.54178e-13 0)
(0.392055 2.37041e-12 0)
(0.392055 5.21937e-13 0)
(0.392055 -2.36972e-12 0)
(0.392055 -5.21969e-13 0)
(0.409003 2.45398e-12 0)
(0.409003 5.92638e-13 0)
(0.409003 -2.4533e-12 0)
(0.409003 -5.92672e-13 0)
(0.426056 2.52593e-12 0)
(0.426056 6.65332e-13 0)
(0.426056 -2.52526e-12 0)
(0.426056 -6.65367e-13 0)
(0.443211 2.58566e-12 0)
(0.443211 7.39014e-13 0)
(0.443211 -2.585e-12 0)
(0.443211 -7.3905e-13 0)
(0.460467 2.63277e-12 0)
(0.460467 8.12609e-13 0)
(0.460467 -2.63211e-12 0)
(0.460467 -8.12645e-13 0)
(0.47782 2.6671e-12 0)
(0.47782 8.85002e-13 0)
(0.47782 -2.66644e-12 0)
(0.47782 -8.85039e-13 0)
(0.495269 2.68868e-12 0)
(0.495269 9.55072e-13 0)
(0.495269 -2.68804e-12 0)
(0.495269 -9.55111e-13 0)
(0.512809 2.6978e-12 0)
(0.512809 1.02172e-12 0)
(0.512809 -2.69716e-12 0)
(0.512809 -1.02176e-12 0)
(0.530438 2.69494e-12 0)
(0.530438 1.08389e-12 0)
(0.530438 -2.6943e-12 0)
(0.530438 -1.08394e-12 0)
(0.548152 2.68078e-12 0)
(0.548152 1.14063e-12 0)
(0.548152 -2.68015e-12 0)
(0.548152 -1.14068e-12 0)
(0.565949 2.65617e-12 0)
(0.565949 1.1911e-12 0)
(0.565949 -2.65555e-12 0)
(0.565949 -1.19115e-12 0)
(0.583824 2.62212e-12 0)
(0.583824 1.23458e-12 0)
(0.583824 -2.6215e-12 0)
(0.583824 -1.23462e-12 0)
(0.601774 2.57975e-12 0)
(0.601774 1.2705e-12 0)
(0.601774 -2.57914e-12 0)
(0.601774 -1.27055e-12 0)
(0.619795 2.53026e-12 0)
(0.619795 1.29849e-12 0)
(0.619795 -2.52966e-12 0)
(0.619795 -1.29854e-12 0)
(0.637883 2.47493e-12 0)
(0.637883 1.31834e-12 0)
(0.637883 -2.47434e-12 0)
(0.637883 -1.31839e-12 0)
(0.656034 2.41503e-12 0)
(0.656034 1.33002e-12 0)
(0.656034 -2.41444e-12 0)
(0.656034 -1.33007e-12 0)
(0.674242 2.35182e-12 0)
(0.674242 1.33368e-12 0)
(0.674242 -2.35123e-12 0)
(0.674242 -1.33373e-12 0)
(0.692503 2.28649e-12 0)
(0.692503 1.32963e-12 0)
(0.692503 -2.28591e-12 0)
(0.692503 -1.32969e-12 0)
(0.710812 2.22017e-12 0)
(0.710812 1.31835e-12 0)
(0.710812 -2.21961e-12 0)
(0.710812 -1.3184e-12 0)
(0.729164 2.15389e-12 0)
(0.729164 1.30042e-12 0)
(0.729164 -2.15333e-12 0)
(0.729164 -1.30048e-12 0)
(0.747554 2.08852e-12 0)
(0.747554 1.27656e-12 0)
(0.747554 -2.08796e-12 0)
(0.747554 -1.27662e-12 0)
(0.765975 2.0248e-12 0)
(0.765975 1.24754e-12 0)
(0.765975 -2.02425e-12 0)
(0.765975 -1.2476e-12 0)
(0.784422 1.96333e-12 0)
(0.784422 1.21418e-12 0)
(0.784422 -1.96279e-12 0)
(0.784422 -1.21425e-12 0)
(0.802888 1.90455e-12 0)
(0.802888 1.17735e-12 0)
(0.802888 -1.90401e-12 0)
(0.802888 -1.17742e-12 0)
(0.821367 1.84873e-12 0)
(0.821367 1.13788e-12 0)
(0.821367 -1.8482e-12 0)
(0.821367 -1.13795e-12 0)
(0.839853 1.79602e-12 0)
(0.839853 1.09659e-12 0)
(0.839853 -1.7955e-12 0)
(0.839853 -1.09666e-12 0)
(0.858337 1.74643e-12 0)
(0.858337 1.05423e-12 0)
(0.858337 -1.74591e-12 0)
(0.858337 -1.0543e-12 0)
(0.876813 1.69985e-12 0)
(0.876813 1.01148e-12 0)
(0.876813 -1.69935e-12 0)
(0.876813 -1.01156e-12 0)
(0.895273 1.65611e-12 0)
(0.895273 9.6895e-13 0)
(0.895273 -1.65561e-12 0)
(0.895273 -9.69025e-13 0)
(0.913709 1.61493e-12 0)
(0.913709 9.27132e-13 0)
(0.913709 -1.61444e-12 0)
(0.913709 -9.27206e-13 0)
(0.932113 1.576e-12 0)
(0.932113 8.8643e-13 0)
(0.932113 -1.57552e-12 0)
(0.932113 -8.86506e-13 0)
(0.950475 1.53897e-12 0)
(0.950475 8.47154e-13 0)
(0.950475 -1.5385e-12 0)
(0.950475 -8.47231e-13 0)
(0.968787 1.5035e-12 0)
(0.968787 8.09513e-13 0)
(0.968787 -1.50303e-12 0)
(0.968787 -8.09586e-13 0)
(0.98704 1.46923e-12 0)
(0.98704 7.73627e-13 0)
(0.98704 -1.46878e-12 0)
(0.98704 -7.73695e-13 0)
(1.00522 1.43585e-12 0)
(1.00522 7.39541e-13 0)
(1.00522 -1.43541e-12 0)
(1.00522 -7.39606e-13 0)
(1.02333 1.40307e-12 0)
(1.02333 7.07241e-13 0)
(1.02333 -1.40265e-12 0)
(1.02333 -7.07305e-13 0)
(1.04134 1.37063e-12 0)
(1.04134 6.76666e-13 0)
(1.04134 -1.37022e-12 0)
(1.04134 -6.76729e-13 0)
(1.05925 1.33833e-12 0)
(1.05925 6.47703e-13 0)
(1.05925 -1.33793e-12 0)
(1.05925 -6.47764e-13 0)
(1.07705 1.306e-12 0)
(1.07705 6.20219e-13 0)
(1.07705 -1.3056e-12 0)
(1.07705 -6.20281e-13 0)
(1.09473 1.27353e-12 0)
(1.09473 5.94074e-13 0)
(1.09473 -1.27313e-12 0)
(1.09473 -5.94139e-13 0)
(1.11226 1.24082e-12 0)
(1.11226 5.69129e-13 0)
(1.11226 -1.24043e-12 0)
(1.11226 -5.69197e-13 0)
(1.12965 1.20784e-12 0)
(1.12965 5.45247e-13 0)
(1.12965 -1.20746e-12 0)
(1.12965 -5.45315e-13 0)
(1.14687 1.17456e-12 0)
(1.14687 5.2229e-13 0)
(1.14687 -1.17419e-12 0)
(1.14687 -5.22359e-13 0)
(1.16392 1.141e-12 0)
(1.16392 5.00142e-13 0)
(1.16392 -1.14063e-12 0)
(1.16392 -5.00212e-13 0)
(1.18078 1.10715e-12 0)
(1.18078 4.78705e-13 0)
(1.18078 -1.1068e-12 0)
(1.18078 -4.78773e-13 0)
(1.19743 1.07306e-12 0)
(1.19743 4.579e-13 0)
(1.19743 -1.07272e-12 0)
(1.19743 -4.57966e-13 0)
(1.21386 1.03875e-12 0)
(1.21386 4.37667e-13 0)
(1.21386 -1.03842e-12 0)
(1.21386 -4.3773e-13 0)
(1.23005 1.00425e-12 0)
(1.23005 4.17946e-13 0)
(1.23005 -1.00394e-12 0)
(1.23005 -4.18002e-13 0)
(1.24598 9.69587e-13 0)
(1.24598 3.98693e-13 0)
(1.24598 -9.69299e-13 0)
(1.24598 -3.98741e-13 0)
(1.26165 9.34805e-13 0)
(1.26165 3.7989e-13 0)
(1.26165 -9.3453e-13 0)
(1.26165 -3.79932e-13 0)
(1.27702 8.99927e-13 0)
(1.27702 3.61498e-13 0)
(1.27702 -8.99659e-13 0)
(1.27702 -3.6154e-13 0)
(1.29209 8.64969e-13 0)
(1.29209 3.43493e-13 0)
(1.29209 -8.64704e-13 0)
(1.29209 -3.43541e-13 0)
(1.30683 8.29942e-13 0)
(1.30683 3.25875e-13 0)
(1.30683 -8.29683e-13 0)
(1.30683 -3.25928e-13 0)
(1.32122 7.94847e-13 0)
(1.32122 3.08641e-13 0)
(1.32122 -7.94601e-13 0)
(1.32122 -3.0869e-13 0)
(1.33525 7.59693e-13 0)
(1.33525 2.91766e-13 0)
(1.33525 -7.59458e-13 0)
(1.33525 -2.91814e-13 0)
(1.34888 7.24488e-13 0)
(1.34888 2.75248e-13 0)
(1.34888 -7.24265e-13 0)
(1.34888 -2.75294e-13 0)
(1.3621 6.8922e-13 0)
(1.3621 2.59076e-13 0)
(1.3621 -6.89009e-13 0)
(1.3621 -2.59116e-13 0)
(1.37489 6.53881e-13 0)
(1.37489 2.43226e-13 0)
(1.37489 -6.53683e-13 0)
(1.37489 -2.43267e-13 0)
(1.38723 6.18451e-13 0)
(1.38723 2.27693e-13 0)
(1.38723 -6.18266e-13 0)
(1.38723 -2.27731e-13 0)
(1.39908 5.82915e-13 0)
(1.39908 2.12462e-13 0)
(1.39908 -5.82746e-13 0)
(1.39908 -2.12491e-13 0)
(1.41042 5.47256e-13 0)
(1.41042 1.97509e-13 0)
(1.41042 -5.47101e-13 0)
(1.41042 -1.97537e-13 0)
(1.42123 5.1146e-13 0)
(1.42123 1.82824e-13 0)
(1.42123 -5.11319e-13 0)
(1.42123 -1.82852e-13 0)
(1.43147 4.75509e-13 0)
(1.43147 1.68391e-13 0)
(1.43147 -4.75385e-13 0)
(1.43147 -1.68414e-13 0)
(1.44113 4.39392e-13 0)
(1.44113 1.54195e-13 0)
(1.44113 -4.39277e-13 0)
(1.44113 -1.54221e-13 0)
(1.45017 4.03092e-13 0)
(1.45017 1.40232e-13 0)
(1.45017 -4.02991e-13 0)
(1.45017 -1.40258e-13 0)
(1.45856 3.66589e-13 0)
(1.45856 1.26465e-13 0)
(1.45856 -3.66503e-13 0)
(1.45856 -1.26489e-13 0)
(1.46627 3.29851e-13 0)
(1.46627 1.12873e-13 0)
(1.46627 -3.29777e-13 0)
(1.46627 -1.12898e-13 0)
(1.47327 2.92848e-13 0)
(1.47327 9.94198e-14 0)
(1.47327 -2.92779e-13 0)
(1.47327 -9.9448e-14 0)
(1.47952 2.55534e-13 0)
(1.47952 8.60667e-14 0)
(1.47952 -2.55471e-13 0)
(1.47952 -8.60955e-14 0)
(1.48499 2.17842e-13 0)
(1.48499 7.27987e-14 0)
(1.48499 -2.17792e-13 0)
(1.48499 -7.28215e-14 0)
(1.48965 1.797e-13 0)
(1.48965 5.95778e-14 0)
(1.48965 -1.79662e-13 0)
(1.48965 -5.95942e-14 0)
(1.49345 1.40992e-13 0)
(1.49345 4.63883e-14 0)
(1.49345 -1.40962e-13 0)
(1.49345 -4.64055e-14 0)
(1.49636 1.01547e-13 0)
(1.49636 3.32466e-14 0)
(1.49636 -1.01527e-13 0)
(1.49636 -3.32617e-14 0)
(1.49835 6.13587e-14 0)
(1.49835 2.01181e-14 0)
(1.49835 -6.13468e-14 0)
(1.49835 -2.01274e-14 0)
(1.49936 2.062e-14 0)
(1.49936 6.50835e-15 0)
(1.49936 -2.0615e-14 0)
(1.49936 -6.51237e-15 0)
)
;

boundaryField
{
    inlet
    {
        type            cyclic;
    }
    outlet
    {
        type            cyclic;
    }
    fixedWalls-bottom
    {
        type            noSlip;
    }
    fixedWalls-top
    {
        type            symmetry;
    }
    frontAndBack
    {
        type            empty;
    }
}


// ************************************************************************* //
