/*--------------------------------*- C++ -*----------------------------------*\
  =========                 |
  \\      /  F ield         | OpenFOAM: The Open Source CFD Toolbox
   \\    /   O peration     | Website:  https://openfoam.org
    \\  /    A nd           | Version:  10
     \\/     M anipulation  |
\*---------------------------------------------------------------------------*/
FoamFile
{
    format      ascii;
    class       volScalarField;
    location    "1040";
    object      k;
}
// * * * * * * * * * * * * * * * * * * * * * * * * * * * * * * * * * * * * * //

dimensions      [0 2 -2 0 0 0 0];

internalField   nonuniform List<scalar> 
200
(
4.40134e-09
4.40124e-09
4.40106e-09
4.40094e-09
1.32975e-07
1.32972e-07
1.32967e-07
1.32963e-07
9.62245e-07
9.62226e-07
9.62192e-07
9.62167e-07
3.5863e-06
3.58624e-06
3.58612e-06
3.58602e-06
9.51477e-06
9.51462e-06
9.5143e-06
9.51405e-06
2.0649e-05
2.06487e-05
2.06481e-05
2.06475e-05
3.92825e-05
3.92819e-05
3.92807e-05
3.92797e-05
6.80849e-05
6.8084e-05
6.80819e-05
6.80802e-05
0.000110043
0.000110042
0.000110039
0.000110036
0.000168331
0.000168329
0.000168324
0.00016832
0.000246076
0.000246073
0.000246067
0.000246062
0.000346022
0.000346019
0.00034601
0.000346004
0.00047009
0.000470086
0.000470076
0.000470067
0.000618908
0.000618904
0.000618892
0.000618882
0.000791411
0.000791406
0.000791394
0.000791382
0.000984632
0.000984628
0.000984615
0.000984602
0.00119378
0.00119378
0.00119377
0.00119375
0.00141261
0.00141261
0.0014126
0.00141259
0.00163407
0.00163407
0.00163405
0.00163404
0.00185181
0.00185181
0.0018518
0.0018518
0.00206191
0.00206191
0.00206189
0.0020619
0.00226055
0.00226055
0.00226053
0.00226055
0.00244446
0.00244445
0.00244443
0.00244446
0.00261094
0.00261093
0.00261091
0.00261095
0.00275797
0.00275796
0.00275794
0.00275799
0.00288412
0.00288412
0.00288411
0.00288417
0.00298858
0.00298857
0.00298856
0.00298863
0.00307091
0.00307091
0.0030709
0.00307099
0.00313099
0.00313099
0.00313099
0.0031311
0.00316873
0.00316875
0.00316873
0.00316888
0.00318391
0.00318392
0.00318389
0.0031841
0.0031756
0.0031756
0.00317558
0.00317582
0.00314635
0.00314633
0.00314634
0.00314658
0.00309819
0.00309811
0.0030982
0.00309838
0.00303295
0.00303288
0.00303299
0.00303313
0.00295233
0.00295234
0.00295237
0.00295251
0.00285778
0.00285783
0.00285784
0.00285797
0.00275047
0.00275053
0.00275058
0.00275068
0.00263199
0.00263209
0.00263222
0.00263227
0.00250396
0.00250406
0.00250422
0.00250426
0.00236555
0.00236569
0.00236574
0.00236587
0.00221723
0.00221732
0.00221735
0.00221754
0.00206148
0.00206145
0.0020616
0.00206175
0.00190232
0.00190228
0.00190234
0.00190252
0.00174488
0.00174479
0.00174488
0.00174509
0.00159545
0.00159523
0.00159552
0.00159573
0.00146127
0.00146098
0.00146132
0.00146155
0.00134974
0.0013495
0.00134978
0.00135001
0.00126714
0.00126697
0.00126712
0.00126736
0.00122195
0.00122179
0.0012219
0.00122216
)
;

boundaryField
{
    inlet
    {
        type            cyclic;
    }
    outlet
    {
        type            cyclic;
    }
    fixedWalls-bottom
    {
        type            kqRWallFunction;
        value           nonuniform List<scalar> 4(4.40134e-09 4.40124e-09 4.40106e-09 4.40094e-09);
    }
    fixedWalls-top
    {
        type            symmetry;
    }
    frontAndBack
    {
        type            empty;
    }
}


// ************************************************************************* //
