/*--------------------------------*- C++ -*----------------------------------*\
  =========                 |
  \\      /  F ield         | OpenFOAM: The Open Source CFD Toolbox
   \\    /   O peration     | Website:  https://openfoam.org
    \\  /    A nd           | Version:  10
     \\/     M anipulation  |
\*---------------------------------------------------------------------------*/
FoamFile
{
    format      ascii;
    class       volScalarField;
    location    "1040";
    object      nut;
}
// * * * * * * * * * * * * * * * * * * * * * * * * * * * * * * * * * * * * * //

dimensions      [0 2 -1 0 0 0 0];

internalField   nonuniform List<scalar> 
200
(
4.45227e-13
4.45217e-13
4.45199e-13
4.45187e-13
7.93273e-11
7.93252e-11
7.93216e-11
7.93194e-11
1.72938e-09
1.72934e-09
1.72927e-09
1.72923e-09
1.39224e-08
1.39221e-08
1.39216e-08
1.39212e-08
6.62452e-08
6.62437e-08
6.62414e-08
6.62397e-08
2.2963e-07
2.29625e-07
2.29617e-07
2.29611e-07
6.44889e-07
6.44874e-07
6.44852e-07
6.44836e-07
1.55777e-06
1.55773e-06
1.55768e-06
1.55764e-06
3.3558e-06
3.35572e-06
3.35561e-06
3.35553e-06
6.59718e-06
6.59702e-06
6.59682e-06
6.59667e-06
1.20165e-05
1.20162e-05
1.20159e-05
1.20156e-05
2.04901e-05
2.04896e-05
2.0489e-05
2.04887e-05
3.29475e-05
3.29467e-05
3.29459e-05
3.29454e-05
5.02327e-05
5.02317e-05
5.02306e-05
5.02299e-05
7.29383e-05
7.29371e-05
7.29359e-05
7.29351e-05
0.000101257
0.000101256
0.000101254
0.000101254
0.000134896
0.000134896
0.000134894
0.000134894
0.000173091
0.00017309
0.000173089
0.000173091
0.000212702
0.000212702
0.000212701
0.0002127
0.000249282
0.000249281
0.00024928
0.00024928
0.000287309
0.000287308
0.000287306
0.000287308
0.000326469
0.000326468
0.000326465
0.000326468
0.000366348
0.000366347
0.000366344
0.000366348
0.000406554
0.000406553
0.000406549
0.000406555
0.000446752
0.000446751
0.000446748
0.000446754
0.000486734
0.000486732
0.000486731
0.000486739
0.000526511
0.000526509
0.000526508
0.000526518
0.000566402
0.0005664
0.000566399
0.00056641
0.000607049
0.000607049
0.000607045
0.000607059
0.000649257
0.000649259
0.000649252
0.000649268
0.000692866
0.000692871
0.000692851
0.000692883
0.000720949
0.000720937
0.000720988
0.000721076
0.000747294
0.000747277
0.000747335
0.000747426
0.000772534
0.000772503
0.000772576
0.000772659
0.000797279
0.000797257
0.000797322
0.000797403
0.000822222
0.000822241
0.000822255
0.000822353
0.000848176
0.000848276
0.000848248
0.00084833
0.000876298
0.00087648
0.000876455
0.000876462
0.000908493
0.000909097
0.000908915
0.000908688
0.000948176
0.000948695
0.000948723
0.000948298
0.000984858
0.000985266
0.000985483
0.000985382
0.00101662
0.00101677
0.00101698
0.00101718
0.00104268
0.00104281
0.00104305
0.00104342
0.00106341
0.00106359
0.0010638
0.00106444
0.00107913
0.00107916
0.00107978
0.0010806
0.00108978
0.00108883
0.0010917
0.00109242
0.00109719
0.00109604
0.0010995
0.0011005
0.0011013
0.00110106
0.00110396
0.00110545
0.00110309
0.00110339
0.00110427
0.00110666
0.00110126
0.0011001
0.00110187
0.0011057
)
;

boundaryField
{
    inlet
    {
        type            cyclic;
    }
    outlet
    {
        type            cyclic;
    }
    fixedWalls-bottom
    {
        type            nutkWallFunction;
        Cmu             0.09;
        kappa           0.41;
        E               9.8;
        value           uniform 0;
    }
    fixedWalls-top
    {
        type            symmetry;
    }
    frontAndBack
    {
        type            empty;
    }
}


// ************************************************************************* //
