/*--------------------------------*- C++ -*----------------------------------*\
  =========                 |
  \\      /  F ield         | OpenFOAM: The Open Source CFD Toolbox
   \\    /   O peration     | Website:  https://openfoam.org
    \\  /    A nd           | Version:  10
     \\/     M anipulation  |
\*---------------------------------------------------------------------------*/
FoamFile
{
    format      ascii;
    class       volScalarField;
    location    "1040";
    object      omega;
}
// * * * * * * * * * * * * * * * * * * * * * * * * * * * * * * * * * * * * * //

dimensions      [0 0 -1 0 0 0 0];

internalField   nonuniform List<scalar> 
200
(
9885.61
9885.61
9885.61
9885.61
1676.29
1676.29
1676.3
1676.3
556.41
556.412
556.414
556.413
257.592
257.594
257.594
257.594
143.63
143.63
143.631
143.631
89.9231
89.9238
89.924
89.9239
60.9136
60.9141
60.9142
60.9142
43.7068
43.7072
43.7073
43.7073
32.792
32.7924
32.7925
32.7925
25.5156
25.5159
25.516
25.516
20.4781
20.4784
20.4785
20.4784
16.8873
16.8875
16.8876
16.8876
14.2679
14.2681
14.2681
14.2681
12.3208
12.321
12.321
12.321
10.8504
10.8505
10.8505
10.8505
9.7241
9.72418
9.72418
9.72411
8.8496
8.84964
8.84964
8.84953
8.16112
8.16113
8.16111
8.16097
7.61083
7.61084
7.61079
7.61063
7.16348
7.16349
7.1634
7.16322
6.79273
6.79273
6.79263
6.79241
6.47877
6.47874
6.47865
6.4784
6.20658
6.20647
6.20645
6.20614
5.96471
5.96458
5.96456
5.96423
5.74447
5.74432
5.7443
5.74395
5.53921
5.53905
5.53902
5.53866
5.34383
5.34368
5.34363
5.34327
5.15443
5.1543
5.15422
5.15385
4.96799
4.96794
4.96776
4.96739
4.78218
4.78201
4.78197
4.78151
4.59487
4.59494
4.59463
4.59437
4.40475
4.40483
4.40448
4.40428
4.21032
4.2104
4.21007
4.20989
4.01043
4.01048
4.01021
4.01003
3.80412
3.80414
3.80397
3.80376
3.59067
3.5906
3.59058
3.59032
3.36932
3.36898
3.36911
3.36893
3.13874
3.13816
3.1383
3.13839
2.89709
2.89528
2.89601
2.89678
2.64082
2.63948
2.63957
2.64079
2.40192
2.40107
2.40059
2.40097
2.18099
2.18075
2.18033
2.18009
1.97711
1.97683
1.9765
1.97596
1.78888
1.78854
1.78824
1.78735
1.61693
1.61681
1.61595
1.61492
1.464
1.46509
1.46151
1.46073
1.33183
1.33296
1.32907
1.32807
1.22559
1.22563
1.22267
1.22122
1.14871
1.14825
1.14748
1.14521
1.1096
1.11061
1.10893
1.10533
)
;

boundaryField
{
    inlet
    {
        type            cyclic;
    }
    outlet
    {
        type            cyclic;
    }
    fixedWalls-bottom
    {
        beta1           0.075;
        blended         0;
        type            omegaWallFunction;
        value           nonuniform List<scalar> 4(9885.61 9885.61 9885.61 9885.61);
    }
    fixedWalls-top
    {
        type            symmetry;
    }
    frontAndBack
    {
        type            empty;
    }
}


// ************************************************************************* //
