/*--------------------------------*- C++ -*----------------------------------*\
  =========                 |
  \\      /  F ield         | OpenFOAM: The Open Source CFD Toolbox
   \\    /   O peration     | Website:  https://openfoam.org
    \\  /    A nd           | Version:  10
     \\/     M anipulation  |
\*---------------------------------------------------------------------------*/
FoamFile
{
    format      ascii;
    class       volScalarField;
    location    "1040";
    object      p;
}
// * * * * * * * * * * * * * * * * * * * * * * * * * * * * * * * * * * * * * //

dimensions      [0 2 -2 0 0 0 0];

internalField   nonuniform List<scalar> 
200
(
-5.6446e-11
5.33598e-07
-6.72954e-09
-5.39643e-07
-7.44451e-12
5.32887e-07
-6.71867e-09
-5.38927e-07
-3.61965e-11
5.32178e-07
-6.74247e-09
-5.38219e-07
-9.9573e-11
5.31706e-07
-6.763e-09
-5.37746e-07
-6.9135e-11
5.31445e-07
-6.81554e-09
-5.37485e-07
1.83495e-11
5.31389e-07
-6.89799e-09
-5.37423e-07
2.08475e-10
5.31501e-07
-7.06957e-09
-5.37533e-07
4.62156e-10
5.31796e-07
-7.32216e-09
-5.37822e-07
8.71578e-10
5.3222e-07
-7.72544e-09
-5.38244e-07
1.40642e-09
5.32762e-07
-8.273e-09
-5.3878e-07
2.17434e-09
5.33333e-07
-9.04409e-09
-5.39349e-07
3.14633e-09
5.33881e-07
-1.00353e-08
-5.39891e-07
4.43115e-09
5.34277e-07
-1.13276e-08
-5.40284e-07
5.99357e-09
5.34427e-07
-1.29116e-08
-5.40427e-07
7.92875e-09
5.34167e-07
-1.48563e-08
-5.40165e-07
1.01728e-08
5.33372e-07
-1.71229e-08
-5.39363e-07
1.27789e-08
5.31849e-07
-1.97393e-08
-5.37838e-07
1.56734e-08
5.29435e-07
-2.26567e-08
-5.35417e-07
1.90791e-08
5.25854e-07
-2.60727e-08
-5.31835e-07
2.2999e-08
5.20847e-07
-3.0016e-08
-5.26822e-07
2.74347e-08
5.14076e-07
-3.4462e-08
-5.20053e-07
3.23075e-08
5.05288e-07
-3.93573e-08
-5.11261e-07
3.77418e-08
4.94168e-07
-4.48012e-08
-5.00145e-07
4.3692e-08
4.80498e-07
-5.0773e-08
-4.86472e-07
5.0293e-08
4.6401e-07
-5.73842e-08
-4.6999e-07
5.74795e-08
4.44569e-07
-6.4589e-08
-4.50551e-07
6.53829e-08
4.21967e-07
-7.25017e-08
-4.27955e-07
7.41301e-08
3.96028e-07
-8.12628e-08
-4.02021e-07
8.42688e-08
3.66486e-07
-9.14109e-08
-3.72486e-07
9.56517e-08
3.33432e-07
-1.028e-07
-3.3944e-07
1.05751e-07
2.97826e-07
-1.12905e-07
-3.03837e-07
1.12916e-07
2.60347e-07
-1.20065e-07
-2.66365e-07
1.19196e-07
2.20307e-07
-1.26344e-07
-2.26318e-07
1.26407e-07
1.76918e-07
-1.33534e-07
-1.82931e-07
1.35112e-07
1.29754e-07
-1.4223e-07
-1.35749e-07
1.45716e-07
7.86286e-08
-1.52801e-07
-8.46264e-08
1.59216e-07
2.47654e-08
-1.66289e-07
-3.07457e-08
1.78882e-07
-2.8917e-08
-1.85923e-07
2.29274e-08
2.13217e-07
-7.57916e-08
-2.20248e-07
6.981e-08
2.57986e-07
-1.14471e-07
-2.64991e-07
1.08471e-07
2.90866e-07
-1.51878e-07
-2.97859e-07
1.45876e-07
3.06997e-07
-1.95953e-07
-3.13962e-07
1.89933e-07
3.16808e-07
-2.4565e-07
-3.23753e-07
2.39626e-07
3.23271e-07
-2.9332e-07
-3.3019e-07
2.87284e-07
3.18385e-07
-3.324e-07
-3.2529e-07
3.26353e-07
2.79742e-07
-3.52681e-07
-2.8664e-07
3.46614e-07
2.14945e-07
-3.55616e-07
-2.2184e-07
3.49525e-07
1.59389e-07
-3.51235e-07
-1.66288e-07
3.45116e-07
1.30068e-07
-3.51249e-07
-1.36976e-07
3.45115e-07
1.16166e-07
-3.58806e-07
-1.23064e-07
3.52688e-07
)
;

boundaryField
{
    inlet
    {
        type            cyclic;
    }
    outlet
    {
        type            cyclic;
    }
    fixedWalls-bottom
    {
        type            zeroGradient;
    }
    fixedWalls-top
    {
        type            symmetry;
    }
    frontAndBack
    {
        type            empty;
    }
}


// ************************************************************************* //
