/*--------------------------------*- C++ -*----------------------------------*\
  =========                 |
  \\      /  F ield         | OpenFOAM: The Open Source CFD Toolbox
   \\    /   O peration     | Website:  https://openfoam.org
    \\  /    A nd           | Version:  10
     \\/     M anipulation  |
\*---------------------------------------------------------------------------*/
FoamFile
{
    format      ascii;
    class       surfaceScalarField;
    location    "1040";
    object      phi;
}
// * * * * * * * * * * * * * * * * * * * * * * * * * * * * * * * * * * * * * //

dimensions      [0 3 -1 0 0 0 0];

internalField   nonuniform List<scalar> 
346
(
0.000280967
5.04683e-10
0.000280969
-1.95636e-09
0.000280969
-4.72856e-11
1.93528e-09
0.000869985
5.96401e-10
0.00086999
-6.88191e-09
0.00086999
-1.42447e-10
6.83691e-09
0.00150384
5.44454e-10
0.00150385
-1.42783e-08
0.00150385
-1.31866e-10
1.42003e-08
0.00218491
3.83e-10
0.00218492
-2.35031e-08
0.00218492
3.56886e-11
2.34094e-08
0.00291566
-1.08628e-10
0.00291567
-3.40958e-08
0.00291567
5.0471e-10
3.39793e-08
0.00369862
-1.0375e-09
0.00369863
-4.52949e-08
0.00369863
1.44129e-09
4.51706e-08
0.00453635
-2.72142e-09
0.00453637
-5.664e-08
0.00453636
3.11072e-09
5.65011e-08
0.00543148
-5.42037e-09
0.00543149
-6.73452e-08
0.00543148
5.81617e-09
6.72038e-08
0.00638654
-9.51919e-09
0.00638655
-7.70702e-08
0.00638655
9.90261e-09
7.69215e-08
0.007404
-1.54152e-08
0.00740401
-8.51045e-08
0.007404
1.58035e-08
8.49568e-08
0.00848611
-2.34688e-08
0.00848611
-9.13419e-08
0.00848611
2.38448e-08
9.11918e-08
0.00963481
-3.40924e-08
0.00963481
-9.5259e-08
0.0096348
3.44724e-08
9.5112e-08
0.0108516
-4.74693e-08
0.0108517
-9.70578e-08
0.0108516
4.78338e-08
9.69133e-08
0.0121377
-6.39499e-08
0.0121377
-9.64555e-08
0.0121377
6.43179e-08
9.63155e-08
0.0134937
-8.34475e-08
0.0134937
-9.39278e-08
0.0134937
8.37974e-08
9.37938e-08
0.0149199
-1.06205e-07
0.0149199
-8.93769e-08
0.0149199
1.06559e-07
8.92477e-08
0.0164164
-1.31914e-07
0.0164164
-8.33796e-08
0.0164164
1.32244e-07
8.32605e-08
0.0179835
-1.60948e-07
0.0179835
-7.59044e-08
0.0179834
1.61282e-07
7.57893e-08
0.0196217
-1.92472e-07
0.0196217
-6.74767e-08
0.0196217
1.92779e-07
6.73746e-08
0.0213334
-2.26301e-07
0.0213334
-5.8215e-08
0.0213334
2.26614e-07
5.81152e-08
0.0231206
-2.61384e-07
0.0231206
-4.86965e-08
0.0231205
2.61663e-07
4.86131e-08
0.0249845
-2.97904e-07
0.0249845
-3.9277e-08
0.0249844
2.98191e-07
3.91935e-08
0.0269263
-3.34435e-07
0.0269263
-3.03572e-08
0.0269262
3.34685e-07
3.02926e-08
0.0289472
-3.71084e-07
0.0289472
-2.2227e-08
0.0289472
3.71342e-07
2.2159e-08
0.0310485
-4.0624e-07
0.0310485
-1.49016e-08
0.0310485
4.06459e-07
1.4854e-08
0.0332313
-4.40114e-07
0.0332313
-8.41171e-09
0.0332313
4.40341e-07
8.35733e-09
0.0354966
-4.71227e-07
0.0354966
-2.09888e-09
0.0354966
4.71413e-07
2.0666e-09
0.0378451
-4.99352e-07
0.0378451
4.16729e-09
0.0378451
4.99544e-07
-4.20889e-09
0.0402771
-5.22414e-07
0.0402771
1.09417e-08
0.040277
5.22569e-07
-1.0963e-08
0.042792
-5.37999e-07
0.042792
1.74813e-08
0.042792
5.38158e-07
-1.75123e-08
0.0453891
-5.42216e-07
0.0453891
2.2044e-08
0.0453891
5.42339e-07
-2.20565e-08
0.0480705
-5.42682e-07
0.0480705
2.48389e-08
0.0480705
5.42805e-07
-2.48584e-08
0.0508388
-5.48066e-07
0.0508388
2.62208e-08
0.0508388
5.48162e-07
-2.62269e-08
0.0536929
-5.53182e-07
0.0536929
2.44679e-08
0.0536928
5.53272e-07
-2.44773e-08
0.0566309
-5.55189e-07
0.0566309
1.76177e-08
0.0566309
5.5526e-07
-1.7618e-08
0.0596502
-5.52267e-07
0.0596502
1.69676e-09
0.0596502
5.5232e-07
-1.69829e-09
0.0627467
-5.48131e-07
0.0627467
-2.66407e-08
0.0627467
5.48174e-07
2.66437e-08
0.0659152
-5.47826e-07
0.0659152
-6.57998e-08
0.0659152
5.47842e-07
6.58016e-08
0.069149
-5.3635e-07
0.069149
-9.24727e-08
0.069149
5.36369e-07
9.24754e-08
0.0724393
-4.92754e-07
0.0724393
-8.28045e-08
0.0724393
4.92742e-07
8.28063e-08
0.0757776
-4.48002e-07
0.0757776
-4.24587e-08
0.0757776
4.48001e-07
4.24585e-08
0.0791564
-4.18818e-07
0.0791563
1.71194e-09
0.0791563
4.18794e-07
-1.70937e-09
0.0825667
-3.83403e-07
0.0825667
3.68402e-08
0.0825667
3.83395e-07
-3.6843e-08
0.085998
-3.1412e-07
0.0859979
7.1352e-08
0.085998
3.14102e-07
-7.13485e-08
0.0894371
-1.9581e-07
0.0894371
9.73325e-08
0.0894372
1.95803e-07
-9.73342e-08
0.0928686
-9.14053e-08
0.0928686
1.08705e-07
0.0928687
9.13964e-08
-1.08702e-07
0.0962739
-5.52486e-08
0.0962739
9.66795e-08
0.0962739
5.52433e-08
-9.66772e-08
0.0996309
-5.84974e-08
0.0996309
7.30387e-08
0.0996309
5.84958e-08
-7.30382e-08
0.102914
-3.57067e-08
0.102914
3.93715e-08
0.102914
3.56968e-08
-3.93616e-08
0.106094
0.106094
0.106094
)
;

boundaryField
{
    inlet
    {
        type            cyclic;
        value           nonuniform List<scalar> 
50
(
-0.106094
-0.102914
-0.0996309
-0.0962739
-0.0928687
-0.0894372
-0.085998
-0.0825668
-0.0791564
-0.0757776
-0.0724393
-0.069149
-0.0659152
-0.0627467
-0.0596502
-0.0566309
-0.0536928
-0.0508388
-0.0480705
-0.0453891
-0.042792
-0.040277
-0.0378451
-0.0354966
-0.0332313
-0.0310485
-0.0289472
-0.0269262
-0.0249844
-0.0231206
-0.0213334
-0.0196217
-0.0179834
-0.0164164
-0.0149199
-0.0134937
-0.0121377
-0.0108516
-0.0096348
-0.0084861
-0.007404
-0.00638654
-0.00543147
-0.00453635
-0.00369861
-0.00291566
-0.00218491
-0.00150384
-0.000869985
-0.000280967
)
;
    }
    outlet
    {
        type            cyclic;
        value           nonuniform List<scalar> 
50
(
0.106094
0.102914
0.0996309
0.0962739
0.0928687
0.0894372
0.085998
0.0825668
0.0791564
0.0757776
0.0724393
0.069149
0.0659152
0.0627467
0.0596502
0.0566309
0.0536928
0.0508388
0.0480705
0.0453891
0.042792
0.040277
0.0378451
0.0354966
0.0332313
0.0310485
0.0289472
0.0269262
0.0249844
0.0231206
0.0213334
0.0196217
0.0179834
0.0164164
0.0149199
0.0134937
0.0121377
0.0108516
0.0096348
0.0084861
0.007404
0.00638654
0.00543147
0.00453635
0.00369861
0.00291566
0.00218491
0.00150384
0.000869985
0.000280967
)
;
    }
    fixedWalls-bottom
    {
        type            calculated;
        value           uniform 0;
    }
    fixedWalls-top
    {
        type            symmetry;
        value           uniform 0;
    }
    frontAndBack
    {
        type            empty;
        value           nonuniform List<scalar> 0();
    }
}


// ************************************************************************* //
