/*--------------------------------*- C++ -*----------------------------------*\
  =========                 |
  \\      /  F ield         | OpenFOAM: The Open Source CFD Toolbox
   \\    /   O peration     | Website:  https://openfoam.org
    \\  /    A nd           | Version:  10
     \\/     M anipulation  |
\*---------------------------------------------------------------------------*/
FoamFile
{
    format      ascii;
    class       volSymmTensorField;
    location    "1040";
    object      R;
}
// * * * * * * * * * * * * * * * * * * * * * * * * * * * * * * * * * * * * * //

dimensions      [0 2 -2 0 0 0 0];

internalField   nonuniform List<symmTensor> 
200
(
(2.93422e-09 -1.46708e-12 -0 2.93422e-09 -0 2.93422e-09)
(2.93416e-09 -1.46705e-12 -0 2.93416e-09 -0 2.93416e-09)
(2.93404e-09 -1.467e-12 -0 2.93404e-09 -0 2.93404e-09)
(2.93396e-09 -1.46695e-12 -0 2.93396e-09 -0 2.93396e-09)
(8.86502e-08 -2.58939e-10 -0 8.86502e-08 -0 8.86502e-08)
(8.86482e-08 -2.58933e-10 -0 8.86482e-08 -0 8.86482e-08)
(8.86447e-08 -2.58923e-10 -0 8.86447e-08 -0 8.86447e-08)
(8.86423e-08 -2.58914e-10 -0 8.86423e-08 -0 8.86423e-08)
(6.41497e-07 -5.58991e-09 -0 6.41497e-07 -0 6.41497e-07)
(6.41484e-07 -5.58979e-09 -0 6.41484e-07 -0 6.41484e-07)
(6.41461e-07 -5.5896e-09 -0 6.41461e-07 -0 6.41461e-07)
(6.41444e-07 -5.58943e-09 -0 6.41444e-07 -0 6.41444e-07)
(2.39087e-06 -4.45441e-08 -0 2.39087e-06 -0 2.39087e-06)
(2.39083e-06 -4.45431e-08 -0 2.39083e-06 -0 2.39083e-06)
(2.39074e-06 -4.45416e-08 -0 2.39074e-06 -0 2.39074e-06)
(2.39068e-06 -4.45403e-08 -0 2.39068e-06 -0 2.39068e-06)
(6.34318e-06 -2.09702e-07 -0 6.34318e-06 -0 6.34318e-06)
(6.34308e-06 -2.09697e-07 -0 6.34308e-06 -0 6.34308e-06)
(6.34287e-06 -2.0969e-07 -0 6.34287e-06 -0 6.34287e-06)
(6.3427e-06 -2.09684e-07 -0 6.3427e-06 -0 6.3427e-06)
(1.3766e-05 -7.18847e-07 -0 1.3766e-05 -0 1.3766e-05)
(1.37658e-05 -7.1883e-07 -0 1.37658e-05 -0 1.37658e-05)
(1.37654e-05 -7.18806e-07 -0 1.37654e-05 -0 1.37654e-05)
(1.3765e-05 -7.18785e-07 -0 1.3765e-05 -0 1.3765e-05)
(2.61883e-05 -1.9953e-06 -0 2.61883e-05 -0 2.61883e-05)
(2.61879e-05 -1.99525e-06 -0 2.61879e-05 -0 2.61879e-05)
(2.61871e-05 -1.99518e-06 -0 2.61871e-05 -0 2.61871e-05)
(2.61864e-05 -1.99513e-06 -0 2.61864e-05 -0 2.61864e-05)
(4.53899e-05 -4.76039e-06 -0 4.53899e-05 -0 4.53899e-05)
(4.53893e-05 -4.76027e-06 -0 4.53893e-05 -0 4.53893e-05)
(4.5388e-05 -4.76011e-06 -0 4.5388e-05 -0 4.5388e-05)
(4.53868e-05 -4.75998e-06 -0 4.53868e-05 -0 4.53868e-05)
(7.33622e-05 -1.012e-05 -0 7.33623e-05 -0 7.33622e-05)
(7.33614e-05 -1.01198e-05 -0 7.33614e-05 -0 7.33614e-05)
(7.33593e-05 -1.01194e-05 -0 7.33593e-05 -0 7.33593e-05)
(7.33575e-05 -1.01192e-05 -0 7.33575e-05 -0 7.33575e-05)
(0.000112221 -1.96117e-05 -0 0.000112221 -0 0.000112221)
(0.000112219 -1.96112e-05 -0 0.000112219 -0 0.000112219)
(0.000112216 -1.96105e-05 -0 0.000112216 -0 0.000112216)
(0.000112214 -1.961e-05 -0 0.000112214 -0 0.000112214)
(0.000164051 -3.51641e-05 -0 0.000164051 -0 0.000164051)
(0.000164049 -3.51632e-05 -0 0.000164049 -0 0.000164049)
(0.000164045 -3.5162e-05 -0 0.000164045 -0 0.000164045)
(0.000164041 -3.51612e-05 -0 0.000164041 -0 0.000164041)
(0.000230681 -5.8921e-05 -0 0.000230681 -0 0.000230681)
(0.000230679 -5.89195e-05 -0 0.000230679 -0 0.000230679)
(0.000230674 -5.89177e-05 -0 0.000230674 -0 0.000230674)
(0.000230669 -5.89165e-05 -0 0.000230669 -0 0.000230669)
(0.000313393 -9.29058e-05 -0 0.000313393 -0 0.000313393)
(0.000313391 -9.29036e-05 -0 0.000313391 -0 0.000313391)
(0.000313384 -9.29011e-05 -0 0.000313384 -0 0.000313384)
(0.000313378 -9.28993e-05 -0 0.000313378 -0 0.000313378)
(0.000412605 -0.000138565 -0 0.000412605 -0 0.000412605)
(0.000412602 -0.000138562 -0 0.000412602 -0 0.000412602)
(0.000412595 -0.000138559 -0 0.000412595 -0 0.000412595)
(0.000412588 -0.000138556 -0 0.000412588 -0 0.000412588)
(0.000527607 -0.000196303 -0 0.000527607 -0 0.000527607)
(0.000527604 -0.0001963 -0 0.000527604 -0 0.000527604)
(0.000527596 -0.000196296 -0 0.000527596 -0 0.000527596)
(0.000527588 -0.000196293 -0 0.000527588 -0 0.000527588)
(0.000656421 -0.000265176 -0 0.000656422 -0 0.000656421)
(0.000656418 -0.000265173 -0 0.000656418 -0 0.000656418)
(0.000656411 -0.000265169 -0 0.00065641 -0 0.00065641)
(0.000656401 -0.000265167 -0 0.000656401 -0 0.000656401)
(0.000795853 -0.000342875 -0 0.000795854 -0 0.000795853)
(0.000795852 -0.000342873 -0 0.000795852 -0 0.000795852)
(0.000795844 -0.000342868 -0 0.000795843 -0 0.000795843)
(0.000795834 -0.000342868 -0 0.000795834 -0 0.000795834)
(0.000941742 -0.000426102 -0 0.000941744 -0 0.000941743)
(0.000941743 -0.000426102 -0 0.000941742 -0 0.000941742)
(0.000941734 -0.000426098 -0 0.000941733 -0 0.000941734)
(0.000941725 -0.000426101 -0 0.000941725 -0 0.000941725)
(0.00108938 -0.000506561 -0 0.00108938 -0 0.00108938)
(0.00108938 -0.000506561 -0 0.00108938 -0 0.00108938)
(0.00108937 -0.000506557 -0 0.00108937 -0 0.00108937)
(0.00108936 -0.000506554 -0 0.00108936 -0 0.00108936)
(0.00123454 -0.000574063 -0 0.00123454 -0 0.00123454)
(0.00123454 -0.000574062 -0 0.00123454 -0 0.00123454)
(0.00123453 -0.000574058 -0 0.00123453 -0 0.00123453)
(0.00123453 -0.000574058 -0 0.00123453 -0 0.00123453)
(0.0013746 -0.000639192 -0 0.00137461 -0 0.00137461)
(0.00137461 -0.000639192 -0 0.00137461 -0 0.00137461)
(0.00137459 -0.000639185 -0 0.00137459 -0 0.00137459)
(0.0013746 -0.00063919 -0 0.0013746 -0 0.0013746)
(0.00150703 -0.000700771 -0 0.00150704 -0 0.00150703)
(0.00150704 -0.000700772 -0 0.00150704 -0 0.00150704)
(0.00150702 -0.000700764 -0 0.00150702 -0 0.00150702)
(0.00150704 -0.000700772 -0 0.00150704 -0 0.00150704)
(0.00162964 -0.000757784 -0 0.00162964 -0 0.00162964)
(0.00162964 -0.000757783 -0 0.00162964 -0 0.00162964)
(0.00162962 -0.000757775 -0 0.00162962 -0 0.00162962)
(0.00162964 -0.000757786 -0 0.00162964 -0 0.00162964)
(0.00174063 -0.000809409 -0 0.00174063 -0 0.00174063)
(0.00174062 -0.000809407 -0 0.00174062 -0 0.00174062)
(0.00174061 -0.000809401 -0 0.00174061 -0 0.00174061)
(0.00174063 -0.000809413 -0 0.00174064 -0 0.00174064)
(0.00183864 -0.000855064 -0 0.00183865 -0 0.00183864)
(0.00183864 -0.000855062 -0 0.00183864 -0 0.00183864)
(0.00183863 -0.000855057 -0 0.00183863 -0 0.00183863)
(0.00183866 -0.000855072 -0 0.00183866 -0 0.00183866)
(0.00192275 -0.000894469 -0 0.00192275 -0 0.00192275)
(0.00192274 -0.000894467 -0 0.00192274 -0 0.00192274)
(0.00192274 -0.000894464 -0 0.00192274 -0 0.00192274)
(0.00192278 -0.000894481 -0 0.00192278 -0 0.00192278)
(0.00199238 -0.000927727 -0 0.00199239 -0 0.00199238)
(0.00199238 -0.000927724 -0 0.00199238 -0 0.00199238)
(0.00199238 -0.000927722 -0 0.00199237 -0 0.00199237)
(0.00199242 -0.000927742 -0 0.00199242 -0 0.00199242)
(0.00204727 -0.000955356 -0 0.00204728 -0 0.00204727)
(0.00204727 -0.000955353 -0 0.00204727 -0 0.00204727)
(0.00204727 -0.000955351 -0 0.00204727 -0 0.00204727)
(0.00204733 -0.000955375 -0 0.00204733 -0 0.00204733)
(0.00208733 -0.000978203 -0 0.00208733 -0 0.00208733)
(0.00208733 -0.000978202 -0 0.00208733 -0 0.00208733)
(0.00208733 -0.000978197 -0 0.00208732 -0 0.00208732)
(0.0020874 -0.000978226 -0 0.0020874 -0 0.0020874)
(0.00211249 -0.000997179 -0 0.00211249 -0 0.00211249)
(0.0021125 -0.00099718 -0 0.0021125 -0 0.0021125)
(0.00211249 -0.000997173 -0 0.00211249 -0 0.00211249)
(0.00211259 -0.000997207 -0 0.00211259 -0 0.00211259)
(0.00212261 -0.0010129 -0 0.00212261 -0 0.00212261)
(0.00212261 -0.00101291 -0 0.00212261 -0 0.00212261)
(0.00212259 -0.00101288 -0 0.00212259 -0 0.00212259)
(0.00212273 -0.00101294 -0 0.00212273 -0 0.00212273)
(0.00211707 -0.0010031 -0 0.00211707 -0 0.00211707)
(0.00211707 -0.00100309 -0 0.00211707 -0 0.00211707)
(0.00211705 -0.00100316 -0 0.00211705 -0 0.00211705)
(0.00211721 -0.00100328 -0 0.00211721 -0 0.00211721)
(0.00209756 -0.000988378 -0 0.00209757 -0 0.00209757)
(0.00209756 -0.000988363 -0 0.00209756 -0 0.00209756)
(0.00209756 -0.000988437 -0 0.00209756 -0 0.00209756)
(0.00209772 -0.000988555 -0 0.00209772 -0 0.00209772)
(0.00206546 -0.000968544 -0 0.00206546 -0 0.00206546)
(0.00206541 -0.000968509 -0 0.00206541 -0 0.00206541)
(0.00206546 -0.000968602 -0 0.00206546 -0 0.00206546)
(0.00206559 -0.000968707 -0 0.00206559 -0 0.00206559)
(0.00202197 -0.000944273 -0 0.00202197 -0 0.00202197)
(0.00202192 -0.000944253 -0 0.00202192 -0 0.00202192)
(0.00202199 -0.000944333 -0 0.00202199 -0 0.00202199)
(0.00202209 -0.000944429 -0 0.00202209 -0 0.00202209)
(0.00196822 -0.000916165 -0 0.00196822 -0 0.00196822)
(0.00196822 -0.000916193 -0 0.00196823 -0 0.00196823)
(0.00196825 -0.000916216 -0 0.00196825 -0 0.00196825)
(0.00196834 -0.00091632 -0 0.00196834 -0 0.00196834)
(0.00190519 -0.000884733 -0 0.00190519 -0 0.00190519)
(0.00190522 -0.000884846 -0 0.00190522 -0 0.00190522)
(0.00190523 -0.000884824 -0 0.00190523 -0 0.00190523)
(0.00190531 -0.0008849 -0 0.00190531 -0 0.00190531)
(0.00183365 -0.000850537 -0 0.00183365 -0 0.00183365)
(0.00183369 -0.00085071 -0 0.00183369 -0 0.00183369)
(0.00183372 -0.000850688 -0 0.00183372 -0 0.00183372)
(0.00183379 -0.000850695 -0 0.00183378 -0 0.00183379)
(0.00175466 -0.000814342 -0 0.00175466 -0 0.00175466)
(0.00175473 -0.000814855 -0 0.00175473 -0 0.00175473)
(0.00175481 -0.00081469 -0 0.00175482 -0 0.00175481)
(0.00175485 -0.000814513 -0 0.00175484 -0 0.00175485)
(0.00166931 -0.000778185 -0 0.00166931 -0 0.00166931)
(0.00166937 -0.000778587 -0 0.00166937 -0 0.00166937)
(0.00166948 -0.000778594 -0 0.00166948 -0 0.00166948)
(0.00166951 -0.000778279 -0 0.00166951 -0 0.00166951)
(0.00157703 -0.000733611 -0 0.00157703 -0 0.00157703)
(0.00157713 -0.000733916 -0 0.00157713 -0 0.00157713)
(0.00157716 -0.000734057 -0 0.00157716 -0 0.00157716)
(0.00157724 -0.000733992 -0 0.00157725 -0 0.00157725)
(0.00147816 -0.000680643 -0 0.00147815 -0 0.00147815)
(0.00147821 -0.000680756 -0 0.00147821 -0 0.00147821)
(0.00147823 -0.000680892 -0 0.00147824 -0 0.00147823)
(0.00147836 -0.000681021 -0 0.00147836 -0 0.00147836)
(0.00137432 -0.000619753 -0 0.00137432 -0 0.00137432)
(0.0013743 -0.000619824 -0 0.0013743 -0 0.0013743)
(0.00137439 -0.000619984 -0 0.0013744 -0 0.0013744)
(0.0013745 -0.000620205 -0 0.0013745 -0 0.0013745)
(0.00126822 -0.000551998 -0 0.00126821 -0 0.00126821)
(0.00126819 -0.000552064 -0 0.00126818 -0 0.00126819)
(0.00126822 -0.000552206 -0 0.00126823 -0 0.00126822)
(0.00126834 -0.000552543 -0 0.00126835 -0 0.00126835)
(0.00116326 -0.000478249 -0 0.00116324 -0 0.00116325)
(0.0011632 -0.000478258 -0 0.00116319 -0 0.0011632)
(0.00116324 -0.000478552 -0 0.00116326 -0 0.00116325)
(0.00116339 -0.000478911 -0 0.00116339 -0 0.00116339)
(0.00106364 -0.000399174 -0 0.00106363 -0 0.00106363)
(0.00106349 -0.000398866 -0 0.00106349 -0 0.00106349)
(0.00106367 -0.000399894 -0 0.00106368 -0 0.00106368)
(0.00106382 -0.000400138 -0 0.00106382 -0 0.00106382)
(0.000974181 -0.000316015 -0 0.000974175 -0 0.000974179)
(0.000973987 -0.000315728 -0 0.000973988 -0 0.000973988)
(0.000974211 -0.000316699 -0 0.000974217 -0 0.000974214)
(0.000974365 -0.000316959 -0 0.000974363 -0 0.000974364)
(0.000899828 -0.000229144 -0 0.000899827 -0 0.000899828)
(0.000899663 -0.000229098 -0 0.000899667 -0 0.000899665)
(0.000899856 -0.000229708 -0 0.000899857 -0 0.000899856)
(0.000900007 -0.000230003 -0 0.000900003 -0 0.000900005)
(0.000844759 -0.000139132 -0 0.000844757 -0 0.000844758)
(0.000844642 -0.000139151 -0 0.000844647 -0 0.000844645)
(0.000844747 -0.000139285 -0 0.00084475 -0 0.000844749)
(0.000844912 -0.00013958 -0 0.000844907 -0 0.000844909)
(0.000814638 -4.65984e-05 -0 0.000814634 -0 0.000814635)
(0.000814523 -4.65414e-05 -0 0.000814527 -0 0.000814525)
(0.000814598 -4.66254e-05 -0 0.000814602 -0 0.000814601)
(0.000814776 -4.67834e-05 -0 0.000814771 -0 0.000814773)
)
;

boundaryField
{
    inlet
    {
        type            cyclic;
    }
    outlet
    {
        type            cyclic;
    }
    fixedWalls-bottom
    {
        type            kqRWallFunction;
        value           nonuniform List<symmTensor> 4((2.93422e-09 -0 -0 2.93422e-09 -0 2.93422e-09) (2.93416e-09 -0 -0 2.93416e-09 -0 2.93416e-09) (2.93404e-09 -0 -0 2.93404e-09 -0 2.93404e-09) (2.93396e-09 -0 -0 2.93396e-09 -0 2.93396e-09));
    }
    fixedWalls-top
    {
        type            symmetry;
    }
    frontAndBack
    {
        type            empty;
    }
}


// ************************************************************************* //
