/*--------------------------------*- C++ -*----------------------------------*\
  =========                 |
  \\      /  F ield         | OpenFOAM: The Open Source CFD Toolbox
   \\    /   O peration     | Website:  https://openfoam.org
    \\  /    A nd           | Version:  10
     \\/     M anipulation  |
\*---------------------------------------------------------------------------*/
FoamFile
{
    format      ascii;
    class       volVectorField;
    location    "1040";
    object      U;
}
// * * * * * * * * * * * * * * * * * * * * * * * * * * * * * * * * * * * * * //

dimensions      [0 1 -1 0 0 0 0];

internalField   nonuniform List<vector> 
200
(
(0.0152488 5.48192e-11 0)
(0.0152488 -4.36586e-10 0)
(0.015249 -7.79663e-13 0)
(0.0152488 3.95807e-10 0)
(0.0458991 7.33717e-10 0)
(0.0458993 -3.91881e-09 0)
(0.0458996 -1.11354e-10 0)
(0.0458993 3.91396e-09 0)
(0.0771272 6.09685e-10 0)
(0.0771274 -1.00906e-08 0)
(0.077128 -1.5504e-10 0)
(0.0771274 1.00254e-08 0)
(0.108931 5.37818e-10 0)
(0.108932 -1.85344e-08 0)
(0.108932 -8.30376e-11 0)
(0.108932 1.84469e-08 0)
(0.141309 2.3271e-10 0)
(0.141309 -2.86201e-08 0)
(0.14131 1.92999e-10 0)
(0.141309 2.85122e-08 0)
(0.174255 -4.44572e-10 0)
(0.174255 -3.96817e-08 0)
(0.174256 8.43072e-10 0)
(0.174255 3.95574e-08 0)
(0.207762 -1.69559e-09 0)
(0.207762 -5.11024e-08 0)
(0.207763 2.08206e-09 0)
(0.207762 5.09668e-08 0)
(0.241819 -3.80876e-09 0)
(0.241819 -6.2263e-08 0)
(0.24182 4.19319e-09 0)
(0.241818 6.21193e-08 0)
(0.276408 -7.11991e-09 0)
(0.276408 -7.25904e-08 0)
(0.276409 7.50526e-09 0)
(0.276408 7.24424e-08 0)
(0.311505 -1.20279e-08 0)
(0.311505 -8.15571e-08 0)
(0.311505 1.24124e-08 0)
(0.311504 8.14067e-08 0)
(0.347072 -1.89204e-08 0)
(0.347072 -8.87453e-08 0)
(0.347073 1.93033e-08 0)
(0.347071 8.85947e-08 0)
(0.383061 -2.81921e-08 0)
(0.38306 -9.38424e-08 0)
(0.383061 2.85712e-08 0)
(0.383059 9.36928e-08 0)
(0.419405 -4.01467e-08 0)
(0.419404 -9.66829e-08 0)
(0.419405 4.05208e-08 0)
(0.419403 9.65365e-08 0)
(0.456024 -5.50521e-08 0)
(0.456024 -9.72367e-08 0)
(0.456024 5.54192e-08 0)
(0.456023 9.70942e-08 0)
(0.492827 -7.30377e-08 0)
(0.492827 -9.56021e-08 0)
(0.492827 7.33978e-08 0)
(0.492826 9.54651e-08 0)
(0.529715 -9.41796e-08 0)
(0.529715 -9.19816e-08 0)
(0.529715 9.45316e-08 0)
(0.529713 9.18501e-08 0)
(0.56659 -1.18476e-07 0)
(0.566589 -8.66111e-08 0)
(0.566589 1.18819e-07 0)
(0.566587 8.64873e-08 0)
(0.603359 -1.46004e-07 0)
(0.603359 -7.9772e-08 0)
(0.603359 1.46336e-07 0)
(0.603357 7.96552e-08 0)
(0.63996 -1.7629e-07 0)
(0.63996 -7.17306e-08 0)
(0.63996 1.76611e-07 0)
(0.639958 7.16223e-08 0)
(0.676377 -2.09127e-07 0)
(0.676377 -6.28053e-08 0)
(0.676376 2.09436e-07 0)
(0.676375 6.27047e-08 0)
(0.712592 -2.43783e-07 0)
(0.712591 -5.33375e-08 0)
(0.712591 2.44078e-07 0)
(0.712589 5.32461e-08 0)
(0.748557 -2.79756e-07 0)
(0.748557 -4.37978e-08 0)
(0.748557 2.80036e-07 0)
(0.748555 4.37146e-08 0)
(0.784231 -3.16414e-07 0)
(0.784231 -3.45489e-08 0)
(0.784231 3.16681e-07 0)
(0.784229 3.44746e-08 0)
(0.819573 -3.53144e-07 0)
(0.819573 -2.60134e-08 0)
(0.819573 3.53395e-07 0)
(0.819571 2.59476e-08 0)
(0.854545 -3.89187e-07 0)
(0.854545 -1.82905e-08 0)
(0.854544 3.89424e-07 0)
(0.854543 1.82324e-08 0)
(0.889108 -4.23901e-07 0)
(0.889108 -1.14127e-08 0)
(0.889108 4.24121e-07 0)
(0.889106 1.13626e-08 0)
(0.923224 -4.56755e-07 0)
(0.923224 -5.06567e-09 0)
(0.923224 4.56961e-07 0)
(0.923222 5.02132e-09 0)
(0.956848 -4.86971e-07 0)
(0.956848 1.13506e-09 0)
(0.956848 4.87156e-07 0)
(0.956847 -1.17222e-09 0)
(0.989929 -5.12655e-07 0)
(0.989929 7.32285e-09 0)
(0.989928 5.12826e-07 0)
(0.989928 -7.35857e-09 0)
(1.0224 -5.3126e-07 0)
(1.0224 1.37484e-08 0)
(1.0224 5.31409e-07 0)
(1.0224 -1.37783e-08 0)
(1.0542 -5.39339e-07 0)
(1.0542 1.9069e-08 0)
(1.0542 5.39474e-07 0)
(1.0542 -1.90979e-08 0)
(1.08534 -5.44793e-07 0)
(1.08534 2.448e-08 0)
(1.08534 5.4491e-07 0)
(1.08534 -2.44984e-08 0)
(1.11582 -5.46183e-07 0)
(1.11582 2.65802e-08 0)
(1.11582 5.46297e-07 0)
(1.11582 -2.6592e-08 0)
(1.14559 -5.51368e-07 0)
(1.14559 2.71632e-08 0)
(1.14559 5.51473e-07 0)
(1.14559 -2.71594e-08 0)
(1.17457 -5.55405e-07 0)
(1.17457 2.34733e-08 0)
(1.17457 5.55507e-07 0)
(1.17457 -2.34621e-08 0)
(1.20268 -5.55533e-07 0)
(1.20268 1.18206e-08 0)
(1.20268 5.55615e-07 0)
(1.20268 -1.18031e-08 0)
(1.22982 -5.53181e-07 0)
(1.22982 -1.1721e-08 0)
(1.22982 5.53242e-07 0)
(1.22982 1.17344e-08 0)
(1.25588 -5.53641e-07 0)
(1.25588 -5.14223e-08 0)
(1.25588 5.53672e-07 0)
(1.25588 5.14255e-08 0)
(1.28074 -5.35884e-07 0)
(1.28074 -8.35312e-08 0)
(1.28075 5.35888e-07 0)
(1.28075 8.35251e-08 0)
(1.30426 -5.0614e-07 0)
(1.30426 -9.29239e-08 0)
(1.30426 5.06124e-07 0)
(1.30426 9.29079e-08 0)
(1.32631 -4.74023e-07 0)
(1.32631 -6.31982e-08 0)
(1.32631 4.73992e-07 0)
(1.32631 6.31797e-08 0)
(1.3468 -4.37262e-07 0)
(1.3468 -2.37562e-08 0)
(1.34679 4.37233e-07 0)
(1.3468 2.37413e-08 0)
(1.36563 -4.04887e-07 0)
(1.36563 1.72076e-08 0)
(1.36563 4.04865e-07 0)
(1.36563 -1.72104e-08 0)
(1.38271 -3.4981e-07 0)
(1.38271 4.95866e-08 0)
(1.38271 3.49809e-07 0)
(1.38271 -4.95806e-08 0)
(1.39789 -2.47126e-07 0)
(1.39789 8.15618e-08 0)
(1.39789 2.47133e-07 0)
(1.39789 -8.15453e-08 0)
(1.41103 -1.55809e-07 0)
(1.41103 1.16869e-07 0)
(1.41103 1.5583e-07 0)
(1.41104 -1.16834e-07 0)
(1.42197 -7.70903e-08 0)
(1.42197 1.15207e-07 0)
(1.42197 7.71168e-08 0)
(1.42197 -1.15163e-07 0)
(1.4305 -5.74551e-08 0)
(1.4305 9.43883e-08 0)
(1.4305 5.74946e-08 0)
(1.4305 -9.43452e-08 0)
(1.43642 -3.86243e-08 0)
(1.43642 4.95564e-08 0)
(1.43642 3.84332e-08 0)
(1.43642 -4.97365e-08 0)
(1.4395 -2.32654e-08 0)
(1.4395 1.61731e-08 0)
(1.4395 2.34676e-08 0)
(1.4395 -1.59695e-08 0)
)
;

boundaryField
{
    inlet
    {
        type            cyclic;
    }
    outlet
    {
        type            cyclic;
    }
    fixedWalls-bottom
    {
        type            noSlip;
    }
    fixedWalls-top
    {
        type            symmetry;
    }
    frontAndBack
    {
        type            empty;
    }
}


// ************************************************************************* //
