/*--------------------------------*- C++ -*----------------------------------*\
  =========                 |
  \\      /  F ield         | OpenFOAM: The Open Source CFD Toolbox
   \\    /   O peration     | Website:  https://openfoam.org
    \\  /    A nd           | Version:  10
     \\/     M anipulation  |
\*---------------------------------------------------------------------------*/
FoamFile
{
    format      ascii;
    class       volScalarField;
    location    "267";
    object      k;
}
// * * * * * * * * * * * * * * * * * * * * * * * * * * * * * * * * * * * * * //

dimensions      [0 2 -2 0 0 0 0];

internalField   nonuniform List<scalar> 
200
(
2.51221e-07
2.51359e-07
2.51328e-07
2.512e-07
7.58957e-06
7.59373e-06
7.59281e-06
7.58893e-06
5.48735e-05
5.49037e-05
5.4897e-05
5.48689e-05
0.000203297
0.000203409
0.000203383
0.000203279
0.000528604
0.000528894
0.000528821
0.00052855
0.00109328
0.00109386
0.00109368
0.00109313
0.00190195
0.00190288
0.00190253
0.00190158
0.0028782
0.00287943
0.00287885
0.00287742
0.00390134
0.00390273
0.00390193
0.00390005
0.00486778
0.0048692
0.00486826
0.004866
0.00572166
0.00572298
0.00572188
0.00571936
0.00645385
0.00645501
0.00645382
0.00645115
0.00706223
0.00706321
0.00706202
0.00705938
0.00755323
0.00755399
0.0075529
0.00755046
0.00793784
0.00793837
0.00793744
0.0079354
0.00822872
0.008229
0.00822822
0.00822675
0.00843842
0.0084384
0.00843772
0.00843693
0.00857843
0.00857807
0.0085774
0.0085774
0.00865898
0.00865836
0.00865775
0.00865845
0.00868881
0.00868799
0.00868741
0.00868857
0.00867533
0.0086744
0.00867369
0.00867532
0.00862473
0.00862375
0.00862278
0.00862491
0.00854213
0.00854116
0.00853983
0.00854251
0.00843183
0.00843085
0.00842927
0.00843247
0.00829757
0.00829655
0.00829485
0.00829846
0.00814254
0.00814153
0.0081398
0.00814367
0.00796891
0.00796802
0.00796629
0.00797073
0.00777883
0.00777805
0.00777629
0.00778139
0.00757363
0.00757339
0.00757144
0.0075771
0.00735464
0.00735431
0.00735237
0.00735824
0.00712199
0.00712095
0.00711908
0.00712489
0.00687539
0.00687404
0.00687241
0.00687782
0.0066156
0.00661445
0.00661271
0.0066179
0.00634324
0.00634261
0.00634066
0.00634592
0.00605927
0.00605929
0.00605736
0.00606247
0.00576522
0.0057653
0.00576365
0.0057683
0.00546125
0.00546155
0.00545989
0.00546442
0.00514857
0.00514897
0.00514735
0.00515166
0.0048284
0.00482876
0.00482721
0.00483119
0.00450224
0.00450243
0.0045009
0.00450447
0.00417237
0.00417171
0.00417013
0.00417337
0.00383978
0.00383931
0.00383733
0.00384036
0.00350807
0.00350801
0.00350577
0.00350888
0.00318241
0.00318215
0.00318013
0.00318236
0.00286833
0.00286799
0.00286642
0.00286802
0.00257381
0.00257346
0.00257207
0.00257353
0.0023089
0.00230837
0.00230716
0.0023086
0.00208682
0.00208622
0.00208505
0.00208658
0.00192299
0.00192284
0.00192155
0.0019236
0.00183443
0.00183409
0.00183307
0.00183479
)
;

boundaryField
{
    inlet
    {
        type            cyclic;
    }
    outlet
    {
        type            cyclic;
    }
    fixedWalls-bottom
    {
        type            kqRWallFunction;
        value           nonuniform List<scalar> 4(2.51221e-07 2.51359e-07 2.51328e-07 2.512e-07);
    }
    fixedWalls-top
    {
        type            symmetry;
    }
    frontAndBack
    {
        type            empty;
    }
}


// ************************************************************************* //
