/*--------------------------------*- C++ -*----------------------------------*\
  =========                 |
  \\      /  F ield         | OpenFOAM: The Open Source CFD Toolbox
   \\    /   O peration     | Website:  https://openfoam.org
    \\  /    A nd           | Version:  10
     \\/     M anipulation  |
\*---------------------------------------------------------------------------*/
FoamFile
{
    format      ascii;
    class       volScalarField;
    location    "267";
    object      nut;
}
// * * * * * * * * * * * * * * * * * * * * * * * * * * * * * * * * * * * * * //

dimensions      [0 2 -1 0 0 0 0];

internalField   nonuniform List<scalar> 
200
(
8.59772e-11
8.60243e-11
8.6014e-11
8.597e-11
1.53058e-08
1.53142e-08
1.53123e-08
1.53045e-08
3.31791e-07
3.31973e-07
3.31932e-07
3.31763e-07
2.60783e-06
2.60931e-06
2.60897e-06
2.60764e-06
1.16751e-05
1.16821e-05
1.16803e-05
1.16744e-05
3.60695e-05
3.60921e-05
3.60854e-05
3.60677e-05
8.49527e-05
8.50031e-05
8.49811e-05
8.49421e-05
0.000163127
0.000163208
0.00016315
0.000163073
0.000269259
0.000269353
0.000269219
0.000269091
0.000396714
0.000396849
0.000396775
0.000396569
0.000525948
0.000526097
0.00052601
0.000525742
0.000666544
0.000666695
0.00066659
0.000666266
0.000817365
0.00081751
0.000817393
0.000817028
0.00097593
0.000976058
0.000975942
0.000975563
0.00113958
0.00113967
0.00113957
0.00113922
0.00130578
0.00130583
0.00130574
0.00130547
0.00147201
0.00147199
0.0014719
0.00147176
0.00163425
0.00163414
0.001634
0.00163405
0.0017914
0.0017912
0.00179105
0.0017913
0.00194207
0.00194179
0.00194166
0.00194205
0.00208511
0.0020848
0.00208472
0.00208518
0.00221981
0.00221956
0.00221953
0.00221991
0.00234584
0.00234575
0.00234579
0.00234573
0.00246314
0.00246318
0.00246331
0.00246217
0.00257103
0.00257107
0.00257125
0.00256862
0.00266466
0.00266586
0.00266592
0.002664
0.00273135
0.00273527
0.00273472
0.00274582
0.0027865
0.00279017
0.00278857
0.00280561
0.00282759
0.00283735
0.00283219
0.00285296
0.00286339
0.00287175
0.00286843
0.00288889
0.00289374
0.00289548
0.00289593
0.00291488
0.0029106
0.00291078
0.00291733
0.00293111
0.00291668
0.00292441
0.00292225
0.00294008
0.00291014
0.00292429
0.00291535
0.00294108
0.00289911
0.00291299
0.00290499
0.0029298
0.00288157
0.00289138
0.00288739
0.00290794
0.00284428
0.00286107
0.00285099
0.00287937
0.00280188
0.00281846
0.0028095
0.0028378
0.00274914
0.00276473
0.00275713
0.00278492
0.00268704
0.00269848
0.00269358
0.0027206
0.00261983
0.0026159
0.00261786
0.00264472
0.0025337
0.00252887
0.00253049
0.00255742
0.00243602
0.00243122
0.00243298
0.00245921
0.00232902
0.00232356
0.00232885
0.00235018
0.00221479
0.0022089
0.00221649
0.00223515
0.00209708
0.00209116
0.00209689
0.00211828
0.00198157
0.00197554
0.0019781
0.00200438
0.00187765
0.00187164
0.00187046
0.00190292
0.00179807
0.00179263
0.00178861
0.00182694
0.00175759
0.00175436
0.00174859
0.00178891
)
;

boundaryField
{
    inlet
    {
        type            cyclic;
    }
    outlet
    {
        type            cyclic;
    }
    fixedWalls-bottom
    {
        type            nutkWallFunction;
        Cmu             0.09;
        kappa           0.41;
        E               9.8;
        value           uniform 0;
    }
    fixedWalls-top
    {
        type            symmetry;
    }
    frontAndBack
    {
        type            empty;
    }
}


// ************************************************************************* //
