/*--------------------------------*- C++ -*----------------------------------*\
  =========                 |
  \\      /  F ield         | OpenFOAM: The Open Source CFD Toolbox
   \\    /   O peration     | Website:  https://openfoam.org
    \\  /    A nd           | Version:  10
     \\/     M anipulation  |
\*---------------------------------------------------------------------------*/
FoamFile
{
    format      ascii;
    class       volScalarField;
    location    "267";
    object      omega;
}
// * * * * * * * * * * * * * * * * * * * * * * * * * * * * * * * * * * * * * //

dimensions      [0 0 -1 0 0 0 0];

internalField   nonuniform List<scalar> 
200
(
2921.95
2921.95
2921.95
2921.95
495.861
495.862
495.862
495.862
165.386
165.386
165.386
165.386
77.9562
77.9552
77.9555
77.9553
45.2763
45.2741
45.2745
45.2741
30.3102
30.3074
30.3082
30.3076
22.3883
22.386
22.3877
22.3867
17.6439
17.6427
17.6454
17.6451
14.4892
14.4893
14.4935
14.4934
12.2242
12.2259
12.2316
12.2316
10.5078
10.5109
10.5179
10.5179
9.15725
9.16096
9.16874
9.16884
8.06982
8.07351
8.08149
8.08158
7.18228
7.18552
7.19282
7.19282
6.45176
6.45423
6.46004
6.45975
5.84628
5.84749
5.85223
5.85057
5.34088
5.34211
5.34516
5.34301
4.9167
4.91883
4.91955
4.91726
4.55918
4.56059
4.55975
4.55694
4.25406
4.25547
4.25243
4.24925
3.9907
3.99172
3.98769
3.9836
3.76053
3.76065
3.75684
3.75141
3.55654
3.55399
3.55301
3.5456
3.37354
3.36958
3.36917
3.36072
3.20725
3.20269
3.2023
3.19323
3.05575
3.05101
3.05064
3.04078
2.91758
2.91306
2.91302
2.90158
2.79161
2.78766
2.78863
2.77351
2.67847
2.66917
2.67335
2.65588
2.56851
2.56091
2.5632
2.54708
2.46117
2.45934
2.45831
2.44432
2.36219
2.36158
2.35572
2.34649
2.2682
2.2618
2.26288
2.25093
2.1797
2.16894
2.17492
2.15768
2.09004
2.0801
2.08515
2.06924
2.00072
1.99396
1.99614
1.98364
1.92008
1.90892
1.91509
1.89778
1.83754
1.82687
1.83212
1.81537
1.75633
1.74656
1.75081
1.73477
1.67554
1.6685
1.67097
1.65569
1.59261
1.59475
1.59296
1.578
1.51548
1.51819
1.51644
1.50166
1.44008
1.4429
1.44094
1.42683
1.36642
1.36951
1.36554
1.35409
1.29508
1.29838
1.29323
1.28314
1.22733
1.23063
1.22661
1.21492
1.16519
1.16848
1.16635
1.15178
1.1114
1.11465
1.11472
1.09651
1.06947
1.07264
1.07433
1.0529
1.04372
1.04545
1.04831
1.02565
)
;

boundaryField
{
    inlet
    {
        type            cyclic;
    }
    outlet
    {
        type            cyclic;
    }
    fixedWalls-bottom
    {
        beta1           0.075;
        blended         0;
        type            omegaWallFunction;
        value           nonuniform List<scalar> 4(2921.95 2921.95 2921.95 2921.95);
    }
    fixedWalls-top
    {
        type            symmetry;
    }
    frontAndBack
    {
        type            empty;
    }
}


// ************************************************************************* //
