/*--------------------------------*- C++ -*----------------------------------*\
  =========                 |
  \\      /  F ield         | OpenFOAM: The Open Source CFD Toolbox
   \\    /   O peration     | Website:  https://openfoam.org
    \\  /    A nd           | Version:  10
     \\/     M anipulation  |
\*---------------------------------------------------------------------------*/
FoamFile
{
    format      ascii;
    class       volScalarField;
    location    "267";
    object      p;
}
// * * * * * * * * * * * * * * * * * * * * * * * * * * * * * * * * * * * * * //

dimensions      [0 2 -2 0 0 0 0];

internalField   nonuniform List<scalar> 
200
(
-4.17826e-10
-9.17537e-07
-2.57801e-06
-1.67497e-06
-3.26744e-09
-9.20067e-07
-2.57603e-06
-1.67245e-06
-5.32462e-09
-9.22813e-07
-2.57415e-06
-1.66968e-06
-6.30651e-09
-9.25674e-07
-2.57318e-06
-1.66679e-06
-5.81938e-09
-9.28707e-07
-2.57369e-06
-1.66372e-06
-2.77464e-09
-9.31896e-07
-2.57679e-06
-1.6605e-06
5.07637e-09
-9.35398e-07
-2.5847e-06
-1.65695e-06
2.18289e-08
-9.41421e-07
-2.60152e-06
-1.65088e-06
5.16797e-08
-9.53081e-07
-2.63143e-06
-1.63916e-06
9.16975e-08
-9.6584e-07
-2.67152e-06
-1.62634e-06
1.38669e-07
-9.76126e-07
-2.71856e-06
-1.61597e-06
1.94643e-07
-9.88592e-07
-2.77461e-06
-1.60343e-06
2.59024e-07
-1.00469e-06
-2.83908e-06
-1.58724e-06
3.29548e-07
-1.0243e-06
-2.90969e-06
-1.56755e-06
4.03061e-07
-1.04689e-06
-2.98329e-06
-1.54486e-06
4.77145e-07
-1.07304e-06
-3.05747e-06
-1.51862e-06
5.50224e-07
-1.10412e-06
-3.13065e-06
-1.48742e-06
6.22255e-07
-1.14271e-06
-3.20278e-06
-1.44873e-06
6.92573e-07
-1.18936e-06
-3.27321e-06
-1.40196e-06
7.61315e-07
-1.2425e-06
-3.34205e-06
-1.34871e-06
8.29837e-07
-1.29937e-06
-3.4107e-06
-1.29172e-06
9.0308e-07
-1.35675e-06
-3.48406e-06
-1.23423e-06
9.93756e-07
-1.41052e-06
-3.57488e-06
-1.18031e-06
1.1296e-06
-1.45909e-06
-3.71085e-06
-1.1316e-06
1.33748e-06
-1.50295e-06
-3.91888e-06
-1.08755e-06
1.56246e-06
-1.52943e-06
-4.14408e-06
-1.06113e-06
1.56997e-06
-1.51638e-06
-4.15184e-06
-1.07446e-06
1.2817e-06
-1.49377e-06
-3.86366e-06
-1.09723e-06
8.95048e-07
-1.45133e-06
-3.47708e-06
-1.13942e-06
5.02615e-07
-1.37327e-06
-3.08473e-06
-1.21716e-06
7.40346e-08
-1.33072e-06
-2.65628e-06
-1.25922e-06
-3.87326e-07
-1.27053e-06
-2.19501e-06
-1.31906e-06
-7.81453e-07
-1.15878e-06
-1.80107e-06
-1.43069e-06
-1.101e-06
-1.06321e-06
-1.48175e-06
-1.52625e-06
-1.41919e-06
-9.76272e-07
-1.16381e-06
-1.61316e-06
-1.73006e-06
-8.84847e-07
-8.53157e-07
-1.70461e-06
-2.05039e-06
-7.83347e-07
-5.33047e-07
-1.80613e-06
-2.39538e-06
-6.5707e-07
-1.88207e-07
-1.93257e-06
-2.75296e-06
-5.07474e-07
1.6918e-07
-2.08248e-06
-3.14119e-06
-3.82503e-07
5.57211e-07
-2.20789e-06
-3.61691e-06
-4.06915e-07
1.03268e-06
-2.18347e-06
-4.14869e-06
-5.67685e-07
1.56423e-06
-2.02219e-06
-4.65227e-06
-7.3081e-07
2.06761e-06
-1.85863e-06
-5.10872e-06
-8.3103e-07
2.52392e-06
-1.75844e-06
-5.52338e-06
-8.62678e-07
2.93843e-06
-1.72709e-06
-5.90447e-06
-8.88841e-07
3.31939e-06
-1.70116e-06
-6.25316e-06
-9.58092e-07
3.66795e-06
-1.63185e-06
-6.56037e-06
-1.06567e-06
3.97504e-06
-1.52396e-06
-6.80415e-06
-1.17451e-06
4.21873e-06
-1.41467e-06
-6.95769e-06
-1.2446e-06
4.37224e-06
-1.34422e-06
)
;

boundaryField
{
    inlet
    {
        type            cyclic;
    }
    outlet
    {
        type            cyclic;
    }
    fixedWalls-bottom
    {
        type            zeroGradient;
    }
    fixedWalls-top
    {
        type            symmetry;
    }
    frontAndBack
    {
        type            empty;
    }
}


// ************************************************************************* //
