/*--------------------------------*- C++ -*----------------------------------*\
  =========                 |
  \\      /  F ield         | OpenFOAM: The Open Source CFD Toolbox
   \\    /   O peration     | Website:  https://openfoam.org
    \\  /    A nd           | Version:  10
     \\/     M anipulation  |
\*---------------------------------------------------------------------------*/
FoamFile
{
    format      ascii;
    class       surfaceScalarField;
    location    "267";
    object      phi;
}
// * * * * * * * * * * * * * * * * * * * * * * * * * * * * * * * * * * * * * //

dimensions      [0 3 -1 0 0 0 0];

internalField   nonuniform List<scalar> 
346
(
0.000540007
-4.44175e-09
0.000540024
-1.7881e-08
0.000540006
1.61217e-08
1.7579e-08
0.00167205
-5.23123e-08
0.0016721
-6.90828e-08
0.00167205
6.11425e-08
6.829e-08
0.00289002
-1.23594e-07
0.0028901
-1.5429e-07
0.00289003
1.30944e-07
1.53123e-07
0.0041967
-2.2221e-07
0.00419681
-2.71178e-07
0.00419672
2.28063e-07
2.69647e-07
0.0055895
-3.45645e-07
0.00558964
-4.1862e-07
0.00558952
3.50398e-07
4.16893e-07
0.0070541
-4.97353e-07
0.00705427
-5.85341e-07
0.00705412
5.0146e-07
5.83371e-07
0.00856158
-6.69969e-07
0.00856175
-7.5789e-07
0.00856158
6.73365e-07
7.55851e-07
0.0100759
-8.48357e-07
0.0100761
-9.22112e-07
0.0100759
8.51549e-07
9.19928e-07
0.0115681
-9.97265e-07
0.0115683
-1.08954e-06
0.0115681
1.00005e-06
1.08737e-06
0.0130246
-1.11566e-06
0.0130247
-1.24187e-06
0.0130246
1.11843e-06
1.23962e-06
0.0144506
-1.21719e-06
0.0144507
-1.35576e-06
0.0144506
1.21972e-06
1.35356e-06
0.0158554
-1.29968e-06
0.0158555
-1.43344e-06
0.0158554
1.30222e-06
1.43121e-06
0.017244
-1.3618e-06
0.017244
-1.48025e-06
0.017244
1.36421e-06
1.47807e-06
0.0186219
-1.40348e-06
0.0186219
-1.50086e-06
0.0186219
1.4059e-06
1.49868e-06
0.0199954
-1.4321e-06
0.0199954
-1.49935e-06
0.0199953
1.43444e-06
1.49722e-06
0.0213705
-1.45323e-06
0.0213705
-1.48176e-06
0.0213704
1.45556e-06
1.47967e-06
0.0227533
-1.47687e-06
0.0227532
-1.45509e-06
0.0227532
1.47915e-06
1.45302e-06
0.0241496
-1.5052e-06
0.0241496
-1.43296e-06
0.0241496
1.50745e-06
1.43095e-06
0.0255651
-1.54701e-06
0.0255651
-1.42674e-06
0.025565
1.54926e-06
1.42473e-06
0.0270047
-1.61087e-06
0.0270047
-1.43991e-06
0.0270046
1.61305e-06
1.43799e-06
0.0284729
-1.70741e-06
0.0284729
-1.46246e-06
0.0284728
1.7096e-06
1.46051e-06
0.0299737
-1.83388e-06
0.0299737
-1.46993e-06
0.0299736
1.836e-06
1.46809e-06
0.031511
-1.96194e-06
0.0315109
-1.41567e-06
0.0315108
1.96407e-06
1.41379e-06
0.033088
-1.99138e-06
0.0330878
-1.24422e-06
0.0330878
1.99343e-06
1.24246e-06
0.0347078
-1.72941e-06
0.0347074
-9.20847e-07
0.0347077
1.73146e-06
9.19058e-07
0.0363736
-9.77428e-07
0.0363731
-4.41651e-07
0.0363739
9.79405e-07
4.39985e-07
0.0380902
-8.69365e-08
0.0380896
1.62962e-07
0.0380904
8.88681e-08
-1.64645e-07
0.0398618
4.58868e-07
0.0398612
7.00716e-07
0.0398618
-4.56987e-07
-7.02283e-07
0.0416913
7.13005e-07
0.041691
1.07654e-06
0.0416912
-7.11248e-07
-1.07806e-06
0.0435814
8.2706e-07
0.0435811
1.35262e-06
0.0435812
-8.25319e-07
-1.35406e-06
0.045534
8.1756e-07
0.0455339
1.38379e-06
0.0455339
-8.16002e-07
-1.38513e-06
0.0475512
6.22571e-07
0.0475513
1.22679e-06
0.0475511
-6.20972e-07
-1.2281e-06
0.0496348
3.98761e-07
0.049635
1.08269e-06
0.0496347
-3.97434e-07
-1.08381e-06
0.0517866
3.00472e-07
0.0517867
9.3642e-07
0.0517866
-2.99049e-07
-9.37575e-07
0.0540082
2.55332e-07
0.0540083
8.1108e-07
0.0540082
-2.54265e-07
-8.1196e-07
0.0563003
2.72549e-07
0.0563004
7.23287e-07
0.0563005
-2.71335e-07
-7.24267e-07
0.0586643
3.10091e-07
0.0586643
6.72121e-07
0.0586644
-3.09265e-07
-6.7278e-07
0.0611006
2.81286e-07
0.0611006
7.01373e-07
0.0611006
-2.80273e-07
-7.02188e-07
0.0636093
1.8122e-07
0.0636091
8.96448e-07
0.063609
-1.8059e-07
-8.96935e-07
0.0661895
7.19818e-08
0.0661891
1.32677e-06
0.066189
-7.11657e-08
-1.32743e-06
0.0688398
-7.53678e-08
0.0688394
1.67697e-06
0.0688393
7.58871e-08
-1.67738e-06
0.0715574
-2.155e-07
0.0715574
1.66184e-06
0.0715572
2.16162e-07
-1.66238e-06
0.0743385
-2.3513e-07
0.0743388
1.40226e-06
0.0743387
2.35579e-07
-1.40263e-06
0.0771771
-1.75369e-07
0.0771774
1.09891e-06
0.0771774
1.75938e-07
-1.0994e-06
0.080064
-1.24856e-07
0.0800642
9.41361e-07
0.0800642
1.25363e-07
-9.4182e-07
0.0829865
-1.31463e-07
0.0829865
9.0685e-07
0.0829865
1.32046e-07
-9.07396e-07
0.0859265
-1.55252e-07
0.0859266
8.63531e-07
0.0859265
1.55802e-07
-8.64063e-07
0.0888602
-1.39111e-07
0.0888604
7.11886e-07
0.0888604
1.39599e-07
-7.12367e-07
0.0917567
-7.0954e-08
0.091757
3.97834e-07
0.0917571
7.12521e-08
-3.98132e-07
0.0945801
0.0945805
0.0945806
)
;

boundaryField
{
    inlet
    {
        type            cyclic;
        value           nonuniform List<scalar> 
50
(
-0.0945802
-0.0917568
-0.0888602
-0.0859265
-0.0829865
-0.0800641
-0.0771771
-0.0743385
-0.0715572
-0.0688396
-0.0661894
-0.0636092
-0.0611006
-0.0586643
-0.0563004
-0.0540081
-0.0517865
-0.0496346
-0.047551
-0.045534
-0.0435815
-0.0416916
-0.0398623
-0.038091
-0.0363744
-0.034708
-0.0330879
-0.0315109
-0.0299736
-0.0284728
-0.0270046
-0.0255651
-0.0241496
-0.0227532
-0.0213705
-0.0199953
-0.0186219
-0.0172439
-0.0158554
-0.0144505
-0.0130245
-0.011568
-0.0100758
-0.00856141
-0.00705395
-0.00558937
-0.0041966
-0.00288994
-0.001672
-0.00053999
)
;
    }
    outlet
    {
        type            cyclic;
        value           nonuniform List<scalar> 
50
(
0.0945802
0.0917568
0.0888602
0.0859265
0.0829865
0.0800641
0.0771771
0.0743385
0.0715572
0.0688396
0.0661894
0.0636092
0.0611006
0.0586643
0.0563004
0.0540081
0.0517865
0.0496346
0.047551
0.045534
0.0435815
0.0416916
0.0398623
0.038091
0.0363744
0.034708
0.0330879
0.0315109
0.0299736
0.0284728
0.0270046
0.0255651
0.0241496
0.0227532
0.0213705
0.0199953
0.0186219
0.0172439
0.0158554
0.0144505
0.0130245
0.011568
0.0100758
0.00856141
0.00705395
0.00558937
0.0041966
0.00288994
0.001672
0.00053999
)
;
    }
    fixedWalls-bottom
    {
        type            calculated;
        value           uniform 0;
    }
    fixedWalls-top
    {
        type            symmetry;
        value           uniform 0;
    }
    frontAndBack
    {
        type            empty;
        value           nonuniform List<scalar> 0();
    }
}


// ************************************************************************* //
