/*--------------------------------*- C++ -*----------------------------------*\
  =========                 |
  \\      /  F ield         | OpenFOAM: The Open Source CFD Toolbox
   \\    /   O peration     | Website:  https://openfoam.org
    \\  /    A nd           | Version:  10
     \\/     M anipulation  |
\*---------------------------------------------------------------------------*/
FoamFile
{
    format      ascii;
    class       volSymmTensorField;
    location    "267";
    object      R;
}
// * * * * * * * * * * * * * * * * * * * * * * * * * * * * * * * * * * * * * //

dimensions      [0 2 -2 0 0 0 0];

internalField   nonuniform List<symmTensor> 
200
(
(1.67481e-07 -5.4448e-10 -0 1.67481e-07 -0 1.67481e-07)
(1.67572e-07 -5.4481e-10 -0 1.67572e-07 -0 1.67572e-07)
(1.67552e-07 -5.44745e-10 -0 1.67552e-07 -0 1.67552e-07)
(1.67467e-07 -5.44436e-10 -0 1.67467e-07 -0 1.67467e-07)
(5.05971e-06 -9.60085e-08 -0 5.05971e-06 -0 5.05971e-06)
(5.06248e-06 -9.60659e-08 -0 5.06248e-06 -0 5.06248e-06)
(5.06187e-06 -9.60547e-08 -0 5.06187e-06 -0 5.06187e-06)
(5.05928e-06 -9.60008e-08 -0 5.05928e-06 -0 5.05928e-06)
(3.65823e-05 -2.05899e-06 -0 3.65823e-05 -0 3.65823e-05)
(3.66025e-05 -2.06022e-06 -0 3.66025e-05 -0 3.66025e-05)
(3.6598e-05 -2.05998e-06 -0 3.6598e-05 -0 3.6598e-05)
(3.65793e-05 -2.05883e-06 -0 3.65793e-05 -0 3.65793e-05)
(0.000135531 -1.59487e-05 -0 0.000135531 -0 0.000135531)
(0.000135606 -1.59583e-05 -0 0.000135606 -0 0.000135606)
(0.000135589 -1.59563e-05 -0 0.000135589 -0 0.000135589)
(0.000135519 -1.59475e-05 -0 0.000135519 -0 0.000135519)
(0.000352402 -6.96623e-05 -0 0.000352403 -0 0.000352403)
(0.000352596 -6.97061e-05 -0 0.000352596 -0 0.000352596)
(0.000352548 -6.96959e-05 -0 0.000352547 -0 0.000352547)
(0.000352367 -6.96582e-05 -0 0.000352366 -0 0.000352366)
(0.000728849 -0.000206029 -0 0.000728851 -0 0.00072885)
(0.000729236 -0.000206162 -0 0.000729238 -0 0.000729237)
(0.000729123 -0.000206123 -0 0.000729121 -0 0.000729122)
(0.000728752 -0.000206016 -0 0.000728749 -0 0.000728751)
(0.00126796 -0.000452501 -0 0.00126797 -0 0.00126797)
(0.00126858 -0.000452766 -0 0.00126859 -0 0.00126859)
(0.00126836 -0.000452648 -0 0.00126835 -0 0.00126836)
(0.00126772 -0.000452435 -0 0.00126772 -0 0.00126772)
(0.0019188 -0.00078884 -0 0.00191881 -0 0.0019188)
(0.00191962 -0.000789212 -0 0.00191963 -0 0.00191962)
(0.00191924 -0.000788944 -0 0.00191923 -0 0.00191924)
(0.00191829 -0.000788576 -0 0.00191828 -0 0.00191828)
(0.00260089 -0.00115891 -0 0.0026009 -0 0.0026009)
(0.00260181 -0.00115927 -0 0.00260183 -0 0.00260182)
(0.00260129 -0.00115872 -0 0.00260128 -0 0.00260129)
(0.00260004 -0.00115821 -0 0.00260002 -0 0.00260003)
(0.00324518 -0.00150901 -0 0.00324519 -0 0.00324518)
(0.00324612 -0.00150945 -0 0.00324614 -0 0.00324613)
(0.00324551 -0.00150916 -0 0.0032455 -0 0.0032455)
(0.00324401 -0.00150846 -0 0.00324399 -0 0.003244)
(0.00381443 -0.00177371 -0 0.00381445 -0 0.00381444)
(0.00381531 -0.00177413 -0 0.00381533 -0 0.00381532)
(0.00381459 -0.00177378 -0 0.00381458 -0 0.00381459)
(0.00381291 -0.001773 -0 0.00381289 -0 0.0038129)
(0.00430256 -0.00200069 -0 0.00430257 -0 0.00430257)
(0.00430333 -0.00200106 -0 0.00430335 -0 0.00430334)
(0.00430255 -0.00200068 -0 0.00430254 -0 0.00430255)
(0.00430078 -0.00199986 -0 0.00430076 -0 0.00430077)
(0.00470815 -0.0021893 -0 0.00470816 -0 0.00470816)
(0.0047088 -0.0021896 -0 0.00470881 -0 0.00470881)
(0.00470802 -0.00218923 -0 0.004708 -0 0.00470801)
(0.00470626 -0.00218841 -0 0.00470624 -0 0.00470625)
(0.00503548 -0.00234154 -0 0.00503549 -0 0.00503549)
(0.00503599 -0.00234178 -0 0.005036 -0 0.00503599)
(0.00503527 -0.00234144 -0 0.00503526 -0 0.00503527)
(0.00503365 -0.00234068 -0 0.00503364 -0 0.00503364)
(0.00529189 -0.0024609 -0 0.0052919 -0 0.00529189)
(0.00529225 -0.00246107 -0 0.00529225 -0 0.00529225)
(0.00529163 -0.00246079 -0 0.00529162 -0 0.00529163)
(0.00529026 -0.00246015 -0 0.00529027 -0 0.00529026)
(0.00548581 -0.00255153 -0 0.00548582 -0 0.00548582)
(0.005486 -0.00255162 -0 0.005486 -0 0.005486)
(0.00548549 -0.00255139 -0 0.00548548 -0 0.00548548)
(0.0054845 -0.00255093 -0 0.0054845 -0 0.0054845)
(0.00562561 -0.00261766 -0 0.00562562 -0 0.00562562)
(0.0056256 -0.00261765 -0 0.00562559 -0 0.0056256)
(0.00562515 -0.00261746 -0 0.00562514 -0 0.00562515)
(0.00562462 -0.00261721 -0 0.00562463 -0 0.00562462)
(0.00571895 -0.00266066 -0 0.00571896 -0 0.00571895)
(0.00571872 -0.00266056 -0 0.00571871 -0 0.00571871)
(0.00571827 -0.00266036 -0 0.00571826 -0 0.00571827)
(0.00571826 -0.00266034 -0 0.00571827 -0 0.00571827)
(0.00577265 -0.00268545 -0 0.00577266 -0 0.00577265)
(0.00577224 -0.00268526 -0 0.00577224 -0 0.00577224)
(0.00577184 -0.00268507 -0 0.00577182 -0 0.00577183)
(0.0057723 -0.00268527 -0 0.0057723 -0 0.0057723)
(0.00579253 -0.00269464 -0 0.00579256 -0 0.00579254)
(0.00579199 -0.00269439 -0 0.005792 -0 0.00579199)
(0.00579162 -0.0026942 -0 0.00579159 -0 0.0057916)
(0.00579238 -0.00269455 -0 0.00579238 -0 0.00579238)
(0.00578353 -0.00269051 -0 0.00578358 -0 0.00578356)
(0.00578293 -0.00269022 -0 0.00578294 -0 0.00578293)
(0.00578249 -0.00268999 -0 0.00578244 -0 0.00578246)
(0.00578355 -0.00269047 -0 0.00578354 -0 0.00578355)
(0.00574978 -0.00267495 -0 0.00574985 -0 0.00574982)
(0.00574916 -0.00267465 -0 0.00574917 -0 0.00574917)
(0.00574855 -0.00267433 -0 0.00574848 -0 0.00574852)
(0.00574994 -0.00267495 -0 0.00574994 -0 0.00574994)
(0.00569472 -0.00264956 -0 0.00569478 -0 0.00569475)
(0.00569412 -0.00264924 -0 0.00569409 -0 0.00569411)
(0.00569325 -0.00264883 -0 0.00569319 -0 0.00569322)
(0.005695 -0.00264961 -0 0.00569502 -0 0.00569501)
(0.00562122 -0.00261569 -0 0.00562122 -0 0.00562122)
(0.00562061 -0.00261535 -0 0.00562052 -0 0.00562056)
(0.00561951 -0.00261486 -0 0.00561951 -0 0.00561951)
(0.0056216 -0.00261578 -0 0.0056217 -0 0.00562165)
(0.0055318 -0.00257451 -0 0.00553162 -0 0.00553172)
(0.00553113 -0.00257415 -0 0.00553094 -0 0.00553104)
(0.00552982 -0.00257362 -0 0.00552999 -0 0.00552989)
(0.00553222 -0.00257464 -0 0.0055324 -0 0.00553231)
(0.00542856 -0.00252592 -0 0.00542816 -0 0.00542835)
(0.00542782 -0.00252668 -0 0.00542754 -0 0.00542769)
(0.00542633 -0.00252615 -0 0.00542673 -0 0.00542655)
(0.00542897 -0.0025272 -0 0.00542925 -0 0.00542911)
(0.00531285 -0.00246212 -0 0.00531238 -0 0.00531259)
(0.00531218 -0.00246572 -0 0.00531185 -0 0.00531201)
(0.00531062 -0.00246504 -0 0.00531109 -0 0.00531088)
(0.00531365 -0.00247434 -0 0.00531399 -0 0.00531382)
(0.00518605 -0.00239632 -0 0.00518572 -0 0.0051859)
(0.00518552 -0.00239963 -0 0.00518522 -0 0.00518537)
(0.00518403 -0.002399 -0 0.00518436 -0 0.00518419)
(0.00518744 -0.0024105 -0 0.00518775 -0 0.0051876)
(0.00504917 -0.00232374 -0 0.005049 -0 0.00504909)
(0.00504903 -0.00233107 -0 0.00504881 -0 0.00504893)
(0.00504755 -0.00232849 -0 0.00504771 -0 0.00504762)
(0.00505129 -0.00234233 -0 0.00505151 -0 0.00505139)
(0.00490312 -0.00224967 -0 0.00490307 -0 0.00490309)
(0.00490294 -0.00225601 -0 0.00490281 -0 0.00490287)
(0.00490155 -0.00225478 -0 0.0049016 -0 0.00490158)
(0.00490542 -0.00226857 -0 0.00490555 -0 0.0049055)
(0.00474799 -0.00217348 -0 0.00474801 -0 0.00474799)
(0.00474731 -0.00217644 -0 0.00474729 -0 0.0047473)
(0.00474606 -0.00217647 -0 0.00474604 -0 0.00474606)
(0.00474992 -0.00219006 -0 0.00474994 -0 0.00474993)
(0.00458355 -0.00209075 -0 0.00458363 -0 0.0045836)
(0.00458266 -0.00209287 -0 0.00458273 -0 0.0045827)
(0.00458165 -0.00209609 -0 0.00458156 -0 0.0045816)
(0.00458525 -0.00210685 -0 0.00458518 -0 0.00458521)
(0.00441035 -0.00200415 -0 0.00441045 -0 0.0044104)
(0.00440959 -0.00200962 -0 0.00440968 -0 0.00440963)
(0.00440852 -0.00200791 -0 0.00440842 -0 0.00440847)
(0.00441198 -0.00202067 -0 0.00441189 -0 0.00441194)
(0.0042288 -0.00191178 -0 0.00422886 -0 0.00422882)
(0.00422837 -0.00191982 -0 0.00422844 -0 0.0042284)
(0.00422714 -0.00191511 -0 0.00422707 -0 0.00422711)
(0.00423065 -0.00193134 -0 0.00423058 -0 0.00423062)
(0.0040395 -0.00181791 -0 0.00403952 -0 0.00403951)
(0.0040395 -0.00182591 -0 0.00403956 -0 0.00403953)
(0.00403825 -0.00182142 -0 0.00403823 -0 0.00403824)
(0.00404168 -0.00183674 -0 0.00404162 -0 0.00404165)
(0.00384348 -0.00172203 -0 0.00384347 -0 0.00384348)
(0.00384351 -0.00172791 -0 0.00384355 -0 0.00384353)
(0.00384243 -0.00172531 -0 0.00384244 -0 0.00384243)
(0.00384556 -0.001738 -0 0.00384551 -0 0.00384554)
(0.00364084 -0.00161789 -0 0.00364082 -0 0.00364083)
(0.00364102 -0.00162701 -0 0.00364104 -0 0.00364103)
(0.00363992 -0.00162144 -0 0.00363993 -0 0.00363993)
(0.00364295 -0.00163731 -0 0.00364293 -0 0.00364294)
(0.00343238 -0.00151336 -0 0.00343239 -0 0.00343239)
(0.00343265 -0.00152151 -0 0.00343263 -0 0.00343265)
(0.00343157 -0.00151697 -0 0.00343156 -0 0.00343156)
(0.00343443 -0.00153166 -0 0.00343445 -0 0.00343444)
(0.00321891 -0.00140514 -0 0.00321895 -0 0.00321893)
(0.00321922 -0.00141227 -0 0.00321912 -0 0.00321918)
(0.00321816 -0.00140848 -0 0.00321812 -0 0.00321814)
(0.00322075 -0.00142243 -0 0.00322084 -0 0.00322079)
(0.00300146 -0.00129385 -0 0.00300152 -0 0.00300149)
(0.0030017 -0.00129911 -0 0.00300155 -0 0.00300161)
(0.00300063 -0.00129673 -0 0.00300057 -0 0.0030006)
(0.0030029 -0.00130968 -0 0.00300305 -0 0.00300299)
(0.00278155 -0.00118164 -0 0.00278161 -0 0.00278158)
(0.0027812 -0.0011806 -0 0.00278109 -0 0.00278114)
(0.00278012 -0.00118147 -0 0.00278006 -0 0.00278009)
(0.00278219 -0.00119355 -0 0.0027823 -0 0.00278225)
(0.00255983 -0.00106332 -0 0.00255987 -0 0.00255986)
(0.00255954 -0.00106196 -0 0.00255954 -0 0.00255954)
(0.00255825 -0.00106286 -0 0.0025582 -0 0.00255822)
(0.00256024 -0.00107412 -0 0.00256025 -0 0.00256024)
(0.0023387 -0.000942241 -0 0.00233871 -0 0.00233871)
(0.00233863 -0.000940554 -0 0.00233871 -0 0.00233867)
(0.00233719 -0.000941431 -0 0.00233718 -0 0.00233718)
(0.00233929 -0.000951632 -0 0.00233921 -0 0.00233925)
(0.00212161 -0.00081861 -0 0.0021216 -0 0.00212161)
(0.00212139 -0.000816745 -0 0.00212147 -0 0.00212144)
(0.00212009 -0.000818407 -0 0.0021201 -0 0.00212009)
(0.00212161 -0.000826164 -0 0.00212153 -0 0.00212157)
(0.00191222 -0.000692921 -0 0.00191221 -0 0.00191222)
(0.00191197 -0.000691143 -0 0.00191201 -0 0.00191199)
(0.00191094 -0.000693139 -0 0.00191095 -0 0.00191094)
(0.00191203 -0.000699262 -0 0.00191199 -0 0.00191201)
(0.00171586 -0.000566019 -0 0.00171588 -0 0.00171587)
(0.00171563 -0.000564467 -0 0.00171565 -0 0.00171564)
(0.00171472 -0.000565841 -0 0.00171471 -0 0.00171471)
(0.0017157 -0.00057169 -0 0.00171568 -0 0.00171569)
(0.00153926 -0.00043881 -0 0.00153927 -0 0.00153927)
(0.00153891 -0.000437466 -0 0.00153892 -0 0.00153891)
(0.00153812 -0.000438131 -0 0.0015381 -0 0.0015381)
(0.00153908 -0.000443854 -0 0.00153906 -0 0.00153907)
(0.00139121 -0.000312283 -0 0.00139121 -0 0.00139122)
(0.0013908 -0.000311258 -0 0.00139083 -0 0.00139082)
(0.00139004 -0.000311284 -0 0.00139003 -0 0.00139003)
(0.00139107 -0.000316514 -0 0.00139103 -0 0.00139105)
(0.00128199 -0.000187048 -0 0.00128199 -0 0.00128199)
(0.00128186 -0.000186439 -0 0.00128192 -0 0.0012819)
(0.00128103 -0.000186224 -0 0.00128104 -0 0.00128103)
(0.00128243 -0.000190058 -0 0.00128237 -0 0.0012824)
(0.00122296 -6.2486e-05 -0 0.00122295 -0 0.00122296)
(0.00122269 -6.23402e-05 -0 0.00122277 -0 0.00122273)
(0.00122205 -6.22149e-05 -0 0.00122205 -0 0.00122205)
(0.00122323 -6.35882e-05 -0 0.00122316 -0 0.0012232)
)
;

boundaryField
{
    inlet
    {
        type            cyclic;
    }
    outlet
    {
        type            cyclic;
    }
    fixedWalls-bottom
    {
        type            kqRWallFunction;
        value           nonuniform List<symmTensor> 4((1.67481e-07 -0 -0 1.67481e-07 -0 1.67481e-07) (1.67572e-07 -0 -0 1.67572e-07 -0 1.67572e-07) (1.67552e-07 -0 -0 1.67552e-07 -0 1.67552e-07) (1.67467e-07 -0 -0 1.67467e-07 -0 1.67467e-07));
    }
    fixedWalls-top
    {
        type            symmetry;
    }
    frontAndBack
    {
        type            empty;
    }
}


// ************************************************************************* //
