/*--------------------------------*- C++ -*----------------------------------*\
  =========                 |
  \\      /  F ield         | OpenFOAM: The Open Source CFD Toolbox
   \\    /   O peration     | Website:  https://openfoam.org
    \\  /    A nd           | Version:  10
     \\/     M anipulation  |
\*---------------------------------------------------------------------------*/
FoamFile
{
    format      ascii;
    class       volVectorField;
    location    "267";
    object      U;
}
// * * * * * * * * * * * * * * * * * * * * * * * * * * * * * * * * * * * * * //

dimensions      [0 1 -1 0 0 0 0];

internalField   nonuniform List<vector> 
200
(
(0.0293067 -2.34416e-10 0)
(0.0293084 -3.34439e-09 0)
(0.0293084 3.36653e-09 0)
(0.0293067 3.22366e-09 0)
(0.0882125 -2.00319e-08 0)
(0.0882174 -3.65367e-08 0)
(0.0882176 3.35547e-08 0)
(0.0882128 3.59699e-08 0)
(0.148216 -8.23106e-08 0)
(0.148224 -1.03703e-07 0)
(0.148224 9.07764e-08 0)
(0.148217 1.02716e-07 0)
(0.209226 -1.68044e-07 0)
(0.209237 -2.05466e-07 0)
(0.209238 1.7461e-07 0)
(0.209227 2.04097e-07 0)
(0.270891 -2.79931e-07 0)
(0.270904 -3.39558e-07 0)
(0.270905 2.85172e-07 0)
(0.270892 3.37904e-07 0)
(0.332337 -4.19584e-07 0)
(0.332351 -4.98654e-07 0)
(0.332352 4.23999e-07 0)
(0.332337 4.96789e-07 0)
(0.392107 -5.86153e-07 0)
(0.392122 -6.69443e-07 0)
(0.392122 5.89914e-07 0)
(0.392106 6.67427e-07 0)
(0.448591 -7.64328e-07 0)
(0.448605 -8.41075e-07 0)
(0.448605 7.67628e-07 0)
(0.448589 8.38953e-07 0)
(0.50066 -9.23352e-07 0)
(0.500672 -1.01839e-06 0)
(0.500674 9.26343e-07 0)
(0.500659 1.0162e-06 0)
(0.547971 -1.06384e-06 0)
(0.547981 -1.16994e-06 0)
(0.547984 1.06661e-06 0)
(0.547971 1.16773e-06 0)
(0.591009 -1.1711e-06 0)
(0.591017 -1.30655e-06 0)
(0.591018 1.17374e-06 0)
(0.591009 1.30432e-06 0)
(0.630377 -1.26163e-06 0)
(0.630382 -1.40393e-06 0)
(0.630383 1.26416e-06 0)
(0.630376 1.40171e-06 0)
(0.66646 -1.33354e-06 0)
(0.666463 -1.46529e-06 0)
(0.666463 1.33601e-06 0)
(0.666459 1.46308e-06 0)
(0.699639 -1.3849e-06 0)
(0.699642 -1.49733e-06 0)
(0.69964 1.38731e-06 0)
(0.699639 1.49515e-06 0)
(0.730284 -1.41926e-06 0)
(0.730286 -1.50479e-06 0)
(0.730284 1.42164e-06 0)
(0.730284 1.50264e-06 0)
(0.758735 -1.44331e-06 0)
(0.758737 -1.49258e-06 0)
(0.758734 1.44564e-06 0)
(0.758735 1.49047e-06 0)
(0.785295 -1.46466e-06 0)
(0.785296 -1.46748e-06 0)
(0.785293 1.46696e-06 0)
(0.785295 1.4654e-06 0)
(0.810237 -1.48871e-06 0)
(0.810239 -1.44184e-06 0)
(0.810235 1.49098e-06 0)
(0.810237 1.4398e-06 0)
(0.833801 -1.52266e-06 0)
(0.833803 -1.42644e-06 0)
(0.8338 1.52491e-06 0)
(0.833801 1.42443e-06 0)
(0.856183 -1.57408e-06 0)
(0.856187 -1.43053e-06 0)
(0.856184 1.5763e-06 0)
(0.856183 1.42856e-06 0)
(0.87755 -1.65468e-06 0)
(0.877554 -1.45267e-06 0)
(0.877551 1.65687e-06 0)
(0.877548 1.45074e-06 0)
(0.898037 -1.77527e-06 0)
(0.898042 -1.4761e-06 0)
(0.898037 1.77743e-06 0)
(0.898035 1.47419e-06 0)
(0.917759 -1.92537e-06 0)
(0.917763 -1.46456e-06 0)
(0.917756 1.92749e-06 0)
(0.917756 1.46269e-06 0)
(0.936808 -2.0273e-06 0)
(0.936809 -1.36732e-06 0)
(0.936798 2.02942e-06 0)
(0.936808 1.36556e-06 0)
(0.955258 -1.88547e-06 0)
(0.955257 -1.13745e-06 0)
(0.95524 1.88757e-06 0)
(0.955271 1.13587e-06 0)
(0.973183 -1.2999e-06 0)
(0.973179 -7.14243e-07 0)
(0.973157 1.30186e-06 0)
(0.973219 7.12333e-07 0)
(0.990682 -5.87267e-07 0)
(0.990675 -1.18997e-07 0)
(0.990651 5.89202e-07 0)
(0.990722 1.17003e-07 0)
(1.00784 1.83244e-07 0)
(1.00783 4.37084e-07 0)
(1.00781 -1.8132e-07 0)
(1.00786 -4.38654e-07 0)
(1.02469 6.48807e-07 0)
(1.02469 9.53698e-07 0)
(1.02467 -6.47009e-07 0)
(1.0247 -9.55047e-07 0)
(1.04127 8.17139e-07 0)
(1.04126 1.28298e-06 0)
(1.04126 -8.15389e-07 0)
(1.04126 -1.28435e-06 0)
(1.05757 8.29633e-07 0)
(1.05756 1.36129e-06 0)
(1.05757 -8.28003e-07 0)
(1.05756 -1.36279e-06 0)
(1.0736 6.85884e-07 0)
(1.07362 1.3699e-06 0)
(1.07361 -6.84326e-07 0)
(1.07361 -1.37106e-06 0)
(1.08938 5.52346e-07 0)
(1.0894 1.16335e-06 0)
(1.08939 -5.5085e-07 0)
(1.0894 -1.16462e-06 0)
(1.10491 3.34424e-07 0)
(1.10492 9.89287e-07 0)
(1.10491 -3.33058e-07 0)
(1.10492 -9.90466e-07 0)
(1.12017 2.58067e-07 0)
(1.12017 8.65194e-07 0)
(1.12017 -2.56827e-07 0)
(1.12017 -8.6622e-07 0)
(1.13514 2.71875e-07 0)
(1.13514 7.4893e-07 0)
(1.13514 -2.7074e-07 0)
(1.13514 -7.49882e-07 0)
(1.1498 2.90922e-07 0)
(1.14981 6.78314e-07 0)
(1.14981 -2.8992e-07 0)
(1.14981 -6.79113e-07 0)
(1.16415 3.1198e-07 0)
(1.16415 6.67505e-07 0)
(1.16415 -3.11042e-07 0)
(1.16415 -6.68171e-07 0)
(1.17815 2.71998e-07 0)
(1.17814 8.01783e-07 0)
(1.17814 -2.71105e-07 0)
(1.17813 -8.0234e-07 0)
(1.19174 1.63047e-07 0)
(1.19172 1.16846e-06 0)
(1.19173 -1.62321e-07 0)
(1.19172 -1.16884e-06 0)
(1.20488 -6.87296e-08 0)
(1.20487 1.46749e-06 0)
(1.20487 6.93234e-08 0)
(1.20486 -1.4683e-06 0)
(1.21751 -1.97881e-07 0)
(1.2175 1.68752e-06 0)
(1.21751 1.98559e-07 0)
(1.2175 -1.6879e-06 0)
(1.22954 -2.59433e-07 0)
(1.22954 1.52907e-06 0)
(1.22955 2.59986e-07 0)
(1.22954 -1.52975e-06 0)
(1.24088 -2.05058e-07 0)
(1.24088 1.26264e-06 0)
(1.24089 2.05512e-07 0)
(1.24088 -1.26312e-06 0)
(1.25139 -1.31255e-07 0)
(1.25139 1.04006e-06 0)
(1.25139 1.31794e-07 0)
(1.25139 -1.0404e-06 0)
(1.26088 -1.20789e-07 0)
(1.26089 9.24182e-07 0)
(1.26089 1.21351e-07 0)
(1.26088 -9.24648e-07 0)
(1.26914 -1.63456e-07 0)
(1.26914 8.79868e-07 0)
(1.26914 1.64068e-07 0)
(1.26914 -8.80467e-07 0)
(1.27586 -1.86616e-07 0)
(1.27586 7.80484e-07 0)
(1.27586 1.8726e-07 0)
(1.27585 -7.81127e-07 0)
(1.28069 -1.25207e-07 0)
(1.28069 5.60888e-07 0)
(1.2807 1.25593e-07 0)
(1.28069 -5.61498e-07 0)
(1.28328 -3.35038e-08 0)
(1.28328 2.21958e-07 0)
(1.28329 3.38463e-08 0)
(1.28328 -2.21949e-07 0)
)
;

boundaryField
{
    inlet
    {
        type            cyclic;
    }
    outlet
    {
        type            cyclic;
    }
    fixedWalls-bottom
    {
        type            noSlip;
    }
    fixedWalls-top
    {
        type            symmetry;
    }
    frontAndBack
    {
        type            empty;
    }
}


// ************************************************************************* //
