/*--------------------------------*- C++ -*----------------------------------*\
  =========                 |
  \\      /  F ield         | OpenFOAM: The Open Source CFD Toolbox
   \\    /   O peration     | Website:  https://openfoam.org
    \\  /    A nd           | Version:  10
     \\/     M anipulation  |
\*---------------------------------------------------------------------------*/
FoamFile
{
    format      ascii;
    class       volScalarField;
    location    "5000";
    object      k;
}
// * * * * * * * * * * * * * * * * * * * * * * * * * * * * * * * * * * * * * //

dimensions      [0 2 -2 0 0 0 0];

internalField   nonuniform List<scalar> 
400
(
6.91313e-06
6.91347e-06
6.91302e-06
6.91298e-06
0.000205918
0.000205928
0.000205914
0.000205913
0.00130719
0.00130724
0.00130716
0.00130715
0.0031738
0.00317386
0.00317368
0.00317368
0.00466088
0.00466087
0.00466064
0.00466065
0.0056402
0.00564013
0.00563987
0.00563989
0.00627955
0.00627945
0.00627918
0.00627922
0.00670303
0.00670291
0.00670264
0.0067027
0.00698965
0.00698953
0.00698928
0.00698935
0.00718752
0.0071874
0.00718718
0.00718727
0.00732603
0.00732593
0.00732575
0.00732585
0.00742354
0.00742346
0.00742331
0.00742342
0.0074916
0.00749153
0.00749142
0.00749154
0.00753782
0.00753776
0.00753768
0.00753781
0.00756709
0.00756704
0.00756698
0.00756711
0.00758293
0.00758288
0.00758285
0.00758298
0.00758794
0.00758789
0.00758788
0.00758801
0.00758407
0.00758403
0.00758403
0.00758416
0.00757283
0.00757278
0.00757279
0.00757292
0.00755537
0.00755533
0.00755534
0.00755547
0.00753262
0.00753258
0.00753259
0.00753272
0.00750532
0.00750528
0.0075053
0.00750542
0.00747408
0.00747404
0.00747406
0.00747417
0.00743938
0.00743935
0.00743937
0.00743946
0.00740165
0.00740162
0.00740164
0.00740172
0.00736123
0.0073612
0.00736122
0.00736129
0.00731842
0.0073184
0.00731841
0.00731847
0.00727348
0.00727346
0.00727348
0.00727352
0.00722661
0.0072266
0.00722662
0.00722664
0.00717796
0.00717795
0.00717797
0.00717798
0.00712759
0.00712759
0.00712761
0.0071276
0.00707556
0.00707557
0.00707559
0.00707556
0.00702191
0.00702192
0.00702195
0.0070219
0.00696666
0.00696668
0.00696671
0.00696665
0.00690985
0.00690987
0.00690991
0.00690983
0.0068515
0.00685152
0.00685156
0.00685147
0.00679162
0.00679164
0.00679169
0.00679159
0.00673023
0.00673026
0.00673031
0.0067302
0.00666735
0.00666738
0.00666744
0.00666732
0.006603
0.00660303
0.00660309
0.00660297
0.00653718
0.00653721
0.00653728
0.00653715
0.00646993
0.00646997
0.00647004
0.00646991
0.00640129
0.00640133
0.00640141
0.00640127
0.00633133
0.00633137
0.00633145
0.00633131
0.00626014
0.00626018
0.00626027
0.00626012
0.00618788
0.00618792
0.00618801
0.00618786
0.00611473
0.00611477
0.00611486
0.00611471
0.00604094
0.00604098
0.00604106
0.00604091
0.00596677
0.00596681
0.00596688
0.00596675
0.00589251
0.00589254
0.0058926
0.00589249
0.00581836
0.00581837
0.00581844
0.00581835
0.00574438
0.00574439
0.00574445
0.0057444
0.00567039
0.0056704
0.00567045
0.0056704
0.0055962
0.00559621
0.00559626
0.00559621
0.00552182
0.00552183
0.00552188
0.00552181
0.00544725
0.00544726
0.00544731
0.00544723
0.0053725
0.00537252
0.00537256
0.00537248
0.00529758
0.0052976
0.00529764
0.00529755
0.0052225
0.00522251
0.00522255
0.00522246
0.00514726
0.00514727
0.00514731
0.00514722
0.00507187
0.00507189
0.00507193
0.00507184
0.00499636
0.00499638
0.00499642
0.00499633
0.00492074
0.00492076
0.0049208
0.00492071
0.00484503
0.00484505
0.0048451
0.00484501
0.00476927
0.00476929
0.00476934
0.00476926
0.0046935
0.00469352
0.00469356
0.00469348
0.00461774
0.00461776
0.0046178
0.00461773
0.00454204
0.00454206
0.0045421
0.00454203
0.00446646
0.00446648
0.00446652
0.00446645
0.00439105
0.00439106
0.0043911
0.00439104
0.00431586
0.00431587
0.00431591
0.00431586
0.00424097
0.00424098
0.00424102
0.00424096
0.00416645
0.00416645
0.00416649
0.00416644
0.00409237
0.00409238
0.00409242
0.00409237
0.00401884
0.00401884
0.00401888
0.00401884
0.00394594
0.00394594
0.00394597
0.00394593
0.00387377
0.00387377
0.0038738
0.00387377
0.00380245
0.00380246
0.00380248
0.00380246
0.00373211
0.00373211
0.00373213
0.00373211
0.00366287
0.00366287
0.00366289
0.00366288
0.00359488
0.00359488
0.0035949
0.00359489
0.00352829
0.00352829
0.0035283
0.00352831
0.00346326
0.00346326
0.00346327
0.00346328
0.00339997
0.00339996
0.00339997
0.00339998
0.00333859
0.00333858
0.00333859
0.00333861
0.00327932
0.00327931
0.00327932
0.00327934
0.00322235
0.00322235
0.00322236
0.00322238
0.00316792
0.00316792
0.00316792
0.00316795
0.00311622
0.00311622
0.00311622
0.00311625
0.00306749
0.00306749
0.00306749
0.00306752
0.00302196
0.00302196
0.00302196
0.00302199
0.00297987
0.00297987
0.00297987
0.0029799
0.00294146
0.00294146
0.00294146
0.00294149
0.00290698
0.00290697
0.00290698
0.00290701
0.00287668
0.00287667
0.00287668
0.00287671
0.0028508
0.00285079
0.0028508
0.00285083
0.0028296
0.0028296
0.0028296
0.00282963
0.00281333
0.00281333
0.00281334
0.00281337
0.00280224
0.00280224
0.00280225
0.00280228
0.00279658
0.00279658
0.00279658
0.00279661
)
;

boundaryField
{
    inlet
    {
        type            cyclic;
    }
    outlet
    {
        type            cyclic;
    }
    fixedWalls-bottom
    {
        type            kqRWallFunction;
        value           nonuniform List<scalar> 4(6.91313e-06 6.91347e-06 6.91302e-06 6.91298e-06);
    }
    fixedWalls-top
    {
        type            symmetry;
    }
    frontAndBack
    {
        type            empty;
    }
}


// ************************************************************************* //
