/*--------------------------------*- C++ -*----------------------------------*\
  =========                 |
  \\      /  F ield         | OpenFOAM: The Open Source CFD Toolbox
   \\    /   O peration     | Website:  https://openfoam.org
    \\  /    A nd           | Version:  10
     \\/     M anipulation  |
\*---------------------------------------------------------------------------*/
FoamFile
{
    format      ascii;
    class       surfaceScalarField;
    location    "5000";
    object      phi;
}
// * * * * * * * * * * * * * * * * * * * * * * * * * * * * * * * * * * * * * //

dimensions      [0 3 -1 0 0 0 0];

internalField   nonuniform List<scalar> 
696
(
0.000604063
-4.60617e-09
0.000604063
1.59455e-10
0.000604058
4.58272e-09
-1.59227e-10
0.0018358
-1.84631e-08
0.00183579
1.43629e-09
0.00183578
1.844e-08
-1.43538e-09
0.00303912
-3.96318e-08
0.00303911
5.5425e-09
0.00303909
3.96097e-08
-5.54106e-09
0.00405216
-6.18527e-08
0.00405215
1.27127e-08
0.00405213
6.18308e-08
-1.27109e-08
0.00483546
-8.07362e-08
0.00483545
2.0319e-08
0.00483543
8.07151e-08
-2.03169e-08
0.00545678
-9.46111e-08
0.00545677
2.67012e-08
0.00545676
9.45901e-08
-2.6699e-08
0.00597187
-1.03013e-07
0.00597187
3.18907e-08
0.00597186
1.02993e-07
-3.18883e-08
0.00641495
-1.06204e-07
0.00641495
3.67362e-08
0.00641495
1.06184e-07
-3.67336e-08
0.00680795
-1.04597e-07
0.00680794
4.23523e-08
0.00680794
1.04577e-07
-4.23496e-08
0.00716523
-9.83699e-08
0.00716523
4.95913e-08
0.00716523
9.835e-08
-4.95885e-08
0.00749651
-8.7501e-08
0.00749651
5.85637e-08
0.00749652
8.74815e-08
-5.85608e-08
0.0078086
-7.25144e-08
0.00780859
6.8354e-08
0.00780861
7.2495e-08
-6.8351e-08
0.00810654
-5.63774e-08
0.00810653
7.71548e-08
0.00810655
5.63584e-08
-7.71518e-08
0.00839388
-4.13946e-08
0.00839387
8.4302e-08
0.00839389
4.13756e-08
-8.42989e-08
0.00867305
-2.79221e-08
0.00867305
9.02197e-08
0.00867306
2.79034e-08
-9.02165e-08
0.00894593
-1.62648e-08
0.00894593
9.50867e-08
0.00894594
1.62462e-08
-9.50834e-08
0.00921398
-6.66558e-09
0.00921398
9.88603e-08
0.00921399
6.64731e-09
-9.88569e-08
0.00947835
7.48481e-10
0.00947835
1.01451e-07
0.00947836
-7.66714e-10
-1.01448e-07
0.00974
5.97765e-09
0.00973999
1.0282e-07
0.00974
-5.99555e-09
-1.02816e-07
0.00999968
9.09737e-09
0.00999968
1.0292e-07
0.00999968
-9.11524e-09
-1.02917e-07
0.010258
1.02436e-08
0.010258
1.01722e-07
0.010258
-1.02612e-08
-1.01718e-07
0.0105156
9.59405e-09
0.0105156
9.9234e-08
0.0105156
-9.61157e-09
-9.92304e-08
0.0107729
7.35203e-09
0.0107729
9.55567e-08
0.0107729
-7.36925e-09
-9.55529e-08
0.0110302
3.73109e-09
0.0110302
9.09076e-08
0.0110302
-3.74826e-09
-9.09038e-08
0.011288
-1.0105e-09
0.011288
8.56288e-08
0.011288
9.93621e-10
-8.56249e-08
0.0115464
-6.51344e-09
0.0115464
8.02024e-08
0.0115464
6.4966e-09
-8.01985e-08
0.0118059
-1.23175e-08
0.0118059
7.51739e-08
0.0118059
1.2301e-08
-7.517e-08
0.0120665
-1.78933e-08
0.0120665
7.09598e-08
0.0120665
1.78768e-08
-7.09558e-08
0.0123286
-2.21847e-08
0.0123286
6.72534e-08
0.0123286
2.21685e-08
-6.72494e-08
0.0125923
-2.43841e-08
0.0125923
6.36907e-08
0.0125923
2.4368e-08
-6.36866e-08
0.012858
-2.46858e-08
0.012858
6.04968e-08
0.012858
2.46699e-08
-6.04926e-08
0.0131258
-2.36659e-08
0.0131258
5.79216e-08
0.0131258
2.365e-08
-5.79174e-08
0.013396
-2.19252e-08
0.013396
5.60459e-08
0.013396
2.19096e-08
-5.60417e-08
0.0136685
-1.99177e-08
0.0136685
5.4789e-08
0.0136685
1.99022e-08
-5.47847e-08
0.0139437
-1.79103e-08
0.0139437
5.39734e-08
0.0139437
1.78951e-08
-5.39691e-08
0.0142216
-1.60197e-08
0.0142216
5.34051e-08
0.0142216
1.60045e-08
-5.34008e-08
0.0145023
-1.42764e-08
0.0145023
5.29223e-08
0.0145023
1.42615e-08
-5.2918e-08
0.014786
-1.26893e-08
0.014786
5.24366e-08
0.014786
1.26744e-08
-5.24323e-08
0.0150727
-1.12781e-08
0.0150727
5.19446e-08
0.0150727
1.12636e-08
-5.19402e-08
0.0153625
-1.00737e-08
0.0153625
5.15431e-08
0.0153625
1.00592e-08
-5.15388e-08
0.0156556
-9.06758e-09
0.0156556
5.14146e-08
0.0156556
9.05333e-09
-5.14102e-08
0.015952
-8.14602e-09
0.015952
5.17941e-08
0.015952
8.13184e-09
-5.17897e-08
0.0162519
-7.01466e-09
0.0162519
5.28705e-08
0.0162519
7.00075e-09
-5.28661e-08
0.0165551
-5.1943e-09
0.0165551
5.46507e-08
0.0165551
5.18047e-09
-5.46463e-08
0.0168619
-2.13057e-09
0.0168619
5.67646e-08
0.0168619
2.11701e-09
-5.67601e-08
0.0171722
2.48378e-09
0.0171722
5.83123e-08
0.0171722
-2.49726e-09
-5.83079e-08
0.0174859
8.19474e-09
0.0174859
5.78586e-08
0.0174859
-8.20795e-09
-5.78541e-08
0.017803
1.31719e-08
0.0178031
5.37239e-08
0.0178031
-1.3185e-08
-5.37194e-08
0.0181236
1.38755e-08
0.0181236
4.4679e-08
0.0181236
-1.38883e-08
-4.46746e-08
0.0184475
5.53587e-09
0.0184475
3.08267e-08
0.0184475
-5.54863e-09
-3.08223e-08
0.0187748
-1.5809e-08
0.0187748
1.41632e-08
0.0187748
1.57965e-08
-1.41588e-08
0.0191057
-4.91957e-08
0.0191057
-2.27258e-09
0.0191057
4.91833e-08
2.27698e-09
0.0194404
-8.22913e-08
0.0194404
-1.77145e-08
0.0194404
8.22791e-08
1.77189e-08
0.0197793
-1.06044e-07
0.0197793
-3.24414e-08
0.0197793
1.06032e-07
3.24458e-08
0.0201225
-1.21956e-07
0.0201225
-4.56977e-08
0.0201225
1.21945e-07
4.57021e-08
0.02047
-1.31368e-07
0.02047
-5.71215e-08
0.02047
1.31356e-07
5.71259e-08
0.020822
-1.35438e-07
0.020822
-6.65629e-08
0.020822
1.35427e-07
6.65673e-08
0.0211785
-1.35171e-07
0.0211786
-7.39581e-08
0.0211786
1.35159e-07
7.39625e-08
0.0215397
-1.31436e-07
0.0215397
-7.92588e-08
0.0215397
1.31425e-07
7.92632e-08
0.0219056
-1.25041e-07
0.0219056
-8.25015e-08
0.0219056
1.2503e-07
8.25058e-08
0.0222763
-1.16752e-07
0.0222763
-8.3832e-08
0.0222763
1.16741e-07
8.38363e-08
0.0226519
-1.07284e-07
0.0226519
-8.33944e-08
0.0226519
1.07273e-07
8.33987e-08
0.0230324
-9.7169e-08
0.0230324
-8.10289e-08
0.0230324
9.71587e-08
8.10332e-08
0.023418
-8.68037e-08
0.023418
-7.67275e-08
0.023418
8.67935e-08
7.67317e-08
0.0238087
-7.64214e-08
0.0238087
-7.09593e-08
0.0238087
7.64115e-08
7.09635e-08
0.0242046
-6.62221e-08
0.0242046
-6.42156e-08
0.0242047
6.62123e-08
6.42197e-08
0.0246058
-5.64432e-08
0.0246058
-5.68407e-08
0.0246058
5.64338e-08
5.68448e-08
0.0250123
-4.72332e-08
0.0250123
-4.90272e-08
0.0250123
4.72239e-08
4.90312e-08
0.0254242
-3.87367e-08
0.0254242
-4.08433e-08
0.0254242
3.87277e-08
4.08473e-08
0.0258416
-3.10258e-08
0.0258416
-3.23736e-08
0.0258416
3.1017e-08
3.23775e-08
0.0262644
-2.40014e-08
0.0262644
-2.38197e-08
0.0262644
2.39928e-08
2.38236e-08
0.0266928
-1.75397e-08
0.0266928
-1.54137e-08
0.0266928
1.75314e-08
1.54175e-08
0.0271268
-1.15886e-08
0.0271267
-7.32267e-09
0.0271268
1.15806e-08
7.3264e-09
0.0275664
-6.13722e-09
0.0275664
3.78308e-10
0.0275664
6.12941e-09
-3.74652e-10
0.0280116
-1.18223e-09
0.0280116
7.64588e-09
0.0280116
1.1747e-09
-7.6423e-09
0.0284626
3.32771e-09
0.0284626
1.44723e-08
0.0284626
-3.33501e-09
-1.44688e-08
0.0289193
7.47782e-09
0.0289193
2.08132e-08
0.0289193
-7.48485e-09
-2.08098e-08
0.0293818
1.12858e-08
0.0293818
2.64204e-08
0.0293818
-1.12926e-08
-2.6417e-08
0.02985
1.45701e-08
0.02985
3.11221e-08
0.02985
-1.45766e-08
-3.11188e-08
0.0303239
1.72625e-08
0.0303239
3.50021e-08
0.0303239
-1.72688e-08
-3.49988e-08
0.0308036
1.93307e-08
0.0308036
3.80711e-08
0.0308036
-1.93367e-08
-3.80679e-08
0.031289
2.06869e-08
0.031289
4.04539e-08
0.031289
-2.06926e-08
-4.04508e-08
0.0317802
2.16538e-08
0.0317802
4.22837e-08
0.0317802
-2.16594e-08
-4.22806e-08
0.032277
2.25296e-08
0.032277
4.3517e-08
0.032277
-2.25349e-08
-4.3514e-08
0.0327795
2.32992e-08
0.0327795
4.41654e-08
0.0327795
-2.33042e-08
-4.41625e-08
0.0332876
2.38876e-08
0.0332876
4.41937e-08
0.0332876
-2.38923e-08
-4.41909e-08
0.0338012
2.41279e-08
0.0338012
4.34349e-08
0.0338012
-2.41324e-08
-4.34321e-08
0.0343202
2.39298e-08
0.0343202
4.20167e-08
0.0343202
-2.3934e-08
-4.2014e-08
0.0348446
2.33553e-08
0.0348446
4.02623e-08
0.0348446
-2.33592e-08
-4.02598e-08
0.0353743
2.24476e-08
0.0353743
3.8218e-08
0.0353743
-2.24513e-08
-3.82156e-08
0.0359091
2.12567e-08
0.0359092
3.5911e-08
0.0359092
-2.126e-08
-3.59087e-08
0.036449
1.97211e-08
0.036449
3.32605e-08
0.036449
-1.97241e-08
-3.32583e-08
0.0369938
1.74846e-08
0.0369938
3.00517e-08
0.0369938
-1.74873e-08
-3.00498e-08
0.0375433
1.45031e-08
0.0375433
2.62428e-08
0.0375433
-1.45055e-08
-2.6241e-08
0.0380974
1.14145e-08
0.0380975
2.20533e-08
0.0380974
-1.14165e-08
-2.20518e-08
0.038656
8.65709e-09
0.038656
1.77075e-08
0.038656
-8.65867e-09
-1.77062e-08
0.0392187
6.22124e-09
0.0392187
1.32866e-08
0.0392187
-6.22242e-09
-1.32856e-08
0.0397854
4.02805e-09
0.0397854
8.83482e-09
0.0397854
-4.02882e-09
-8.83412e-09
0.0403558
1.97706e-09
0.0403558
4.38988e-09
0.0403558
-1.9774e-09
-4.38954e-09
0.0409298
0.0409298
0.0409298
)
;

boundaryField
{
    inlet
    {
        type            cyclic;
        value           nonuniform List<scalar> 
100
(
-0.0409298
-0.0403558
-0.0397854
-0.0392187
-0.038656
-0.0380974
-0.0375433
-0.0369938
-0.036449
-0.0359091
-0.0353743
-0.0348446
-0.0343202
-0.0338012
-0.0332876
-0.0327795
-0.032277
-0.0317802
-0.031289
-0.0308036
-0.0303239
-0.02985
-0.0293818
-0.0289193
-0.0284626
-0.0280116
-0.0275664
-0.0271268
-0.0266928
-0.0262644
-0.0258416
-0.0254242
-0.0250123
-0.0246058
-0.0242047
-0.0238087
-0.023418
-0.0230324
-0.0226519
-0.0222763
-0.0219056
-0.0215397
-0.0211785
-0.020822
-0.02047
-0.0201225
-0.0197793
-0.0194404
-0.0191056
-0.0187748
-0.0184475
-0.0181236
-0.0178031
-0.0174859
-0.0171722
-0.0168619
-0.0165551
-0.0162519
-0.015952
-0.0156556
-0.0153625
-0.0150727
-0.014786
-0.0145023
-0.0142216
-0.0139437
-0.0136685
-0.013396
-0.0131258
-0.012858
-0.0125923
-0.0123286
-0.0120665
-0.0118059
-0.0115464
-0.011288
-0.0110302
-0.0107729
-0.0105156
-0.010258
-0.00999968
-0.00974
-0.00947836
-0.00921399
-0.00894595
-0.00867307
-0.00839389
-0.00810655
-0.00780861
-0.00749653
-0.00716524
-0.00680795
-0.00641495
-0.00597186
-0.00545676
-0.00483544
-0.00405214
-0.0030391
-0.00183578
-0.000604058
)
;
    }
    outlet
    {
        type            cyclic;
        value           nonuniform List<scalar> 
100
(
0.0409298
0.0403558
0.0397854
0.0392187
0.038656
0.0380974
0.0375433
0.0369938
0.036449
0.0359091
0.0353743
0.0348446
0.0343202
0.0338012
0.0332876
0.0327795
0.032277
0.0317802
0.031289
0.0308036
0.0303239
0.02985
0.0293818
0.0289193
0.0284626
0.0280116
0.0275664
0.0271268
0.0266928
0.0262644
0.0258416
0.0254242
0.0250123
0.0246058
0.0242047
0.0238087
0.023418
0.0230324
0.0226519
0.0222763
0.0219056
0.0215397
0.0211785
0.020822
0.02047
0.0201225
0.0197793
0.0194404
0.0191056
0.0187748
0.0184475
0.0181236
0.0178031
0.0174859
0.0171722
0.0168619
0.0165551
0.0162519
0.015952
0.0156556
0.0153625
0.0150727
0.014786
0.0145023
0.0142216
0.0139437
0.0136685
0.013396
0.0131258
0.012858
0.0125923
0.0123286
0.0120665
0.0118059
0.0115464
0.011288
0.0110302
0.0107729
0.0105156
0.010258
0.00999968
0.00974
0.00947836
0.00921399
0.00894595
0.00867307
0.00839389
0.00810655
0.00780861
0.00749653
0.00716524
0.00680795
0.00641495
0.00597186
0.00545676
0.00483544
0.00405214
0.0030391
0.00183578
0.000604058
)
;
    }
    fixedWalls-bottom
    {
        type            calculated;
        value           uniform 0;
    }
    fixedWalls-top
    {
        type            symmetry;
        value           uniform 0;
    }
    frontAndBack
    {
        type            empty;
        value           nonuniform List<scalar> 0();
    }
}


// ************************************************************************* //
