/*--------------------------------*- C++ -*----------------------------------*\
  =========                 |
  \\      /  F ield         | OpenFOAM: The Open Source CFD Toolbox
   \\    /   O peration     | Website:  https://openfoam.org
    \\  /    A nd           | Version:  10
     \\/     M anipulation  |
\*---------------------------------------------------------------------------*/
FoamFile
{
    format      ascii;
    class       volSymmTensorField;
    location    "5000";
    object      R;
}
// * * * * * * * * * * * * * * * * * * * * * * * * * * * * * * * * * * * * * //

dimensions      [0 2 -2 0 0 0 0];

internalField   nonuniform List<symmTensor> 
400
(
(4.60875e-06 -1.32631e-07 -0 4.60875e-06 -0 4.60875e-06)
(4.60898e-06 -1.32638e-07 -0 4.60898e-06 -0 4.60898e-06)
(4.60868e-06 -1.32629e-07 -0 4.60868e-06 -0 4.60868e-06)
(4.60866e-06 -1.32627e-07 -0 4.60866e-06 -0 4.60866e-06)
(0.000137278 -2.13931e-05 -0 0.000137278 -0 0.000137278)
(0.000137285 -2.13943e-05 -0 0.000137285 -0 0.000137285)
(0.000137276 -2.13927e-05 -0 0.000137276 -0 0.000137276)
(0.000137275 -2.13925e-05 -0 0.000137275 -0 0.000137275)
(0.000871457 -0.000297583 -0 0.000871457 -0 0.000871457)
(0.000871494 -0.0002976 -0 0.000871494 -0 0.000871494)
(0.000871441 -0.000297581 -0 0.00087144 -0 0.000871441)
(0.000871436 -0.000297579 -0 0.000871436 -0 0.000871436)
(0.00211586 -0.000940989 -0 0.00211587 -0 0.00211587)
(0.00211591 -0.000941019 -0 0.00211591 -0 0.00211591)
(0.00211579 -0.000940961 -0 0.00211579 -0 0.00211579)
(0.00211578 -0.000940961 -0 0.00211578 -0 0.00211578)
(0.00310725 -0.00144488 -0 0.00310725 -0 0.00310725)
(0.00310725 -0.00144488 -0 0.00310725 -0 0.00310725)
(0.00310709 -0.00144481 -0 0.00310709 -0 0.00310709)
(0.0031071 -0.00144481 -0 0.0031071 -0 0.0031071)
(0.00376013 -0.00174859 -0 0.00376013 -0 0.00376013)
(0.00376009 -0.00174857 -0 0.00376009 -0 0.00376009)
(0.00375992 -0.00174849 -0 0.00375991 -0 0.00375991)
(0.00375993 -0.00174849 -0 0.00375993 -0 0.00375993)
(0.00418637 -0.00194677 -0 0.00418637 -0 0.00418637)
(0.0041863 -0.00194674 -0 0.0041863 -0 0.0041863)
(0.00418612 -0.00194666 -0 0.00418612 -0 0.00418612)
(0.00418614 -0.00194667 -0 0.00418614 -0 0.00418614)
(0.00446868 -0.00207795 -0 0.00446869 -0 0.00446868)
(0.0044686 -0.00207792 -0 0.0044686 -0 0.0044686)
(0.00446843 -0.00207783 -0 0.00446842 -0 0.00446843)
(0.00446846 -0.00207785 -0 0.00446846 -0 0.00446846)
(0.00465977 -0.0021668 -0 0.00465977 -0 0.00465977)
(0.00465969 -0.00216676 -0 0.00465969 -0 0.00465969)
(0.00465952 -0.00216668 -0 0.00465952 -0 0.00465952)
(0.00465957 -0.0021667 -0 0.00465957 -0 0.00465957)
(0.00479168 -0.00222813 -0 0.00479168 -0 0.00479168)
(0.0047916 -0.0022281 -0 0.0047916 -0 0.0047916)
(0.00479145 -0.00222803 -0 0.00479146 -0 0.00479146)
(0.00479151 -0.00222805 -0 0.00479151 -0 0.00479151)
(0.00488403 -0.00227107 -0 0.00488402 -0 0.00488402)
(0.00488396 -0.00227104 -0 0.00488395 -0 0.00488395)
(0.00488383 -0.00227098 -0 0.00488383 -0 0.00488383)
(0.0048839 -0.00227101 -0 0.0048839 -0 0.0048839)
(0.00494903 -0.0023013 -0 0.00494903 -0 0.00494903)
(0.00494897 -0.00230127 -0 0.00494897 -0 0.00494897)
(0.00494887 -0.00230123 -0 0.00494888 -0 0.00494887)
(0.00494894 -0.00230126 -0 0.00494895 -0 0.00494895)
(0.0049944 -0.00231914 -0 0.0049944 -0 0.0049944)
(0.00499436 -0.00231908 -0 0.00499435 -0 0.00499435)
(0.00499427 -0.00231907 -0 0.00499428 -0 0.00499428)
(0.00499436 -0.00231917 -0 0.00499436 -0 0.00499436)
(0.00502522 -0.00233223 -0 0.00502521 -0 0.00502521)
(0.00502518 -0.00233221 -0 0.00502517 -0 0.00502517)
(0.00502511 -0.00233221 -0 0.00502512 -0 0.00502512)
(0.0050252 -0.0023323 -0 0.00502521 -0 0.0050252)
(0.00504473 -0.00234044 -0 0.00504472 -0 0.00504473)
(0.00504469 -0.00234044 -0 0.00504469 -0 0.00504469)
(0.00504465 -0.00234045 -0 0.00504466 -0 0.00504466)
(0.00504474 -0.00234055 -0 0.00504474 -0 0.00504474)
(0.00505529 -0.0023448 -0 0.00505528 -0 0.00505529)
(0.00505526 -0.0023448 -0 0.00505525 -0 0.00505526)
(0.00505523 -0.00234482 -0 0.00505524 -0 0.00505523)
(0.00505532 -0.00234494 -0 0.00505532 -0 0.00505532)
(0.00505863 -0.00234606 -0 0.00505862 -0 0.00505863)
(0.0050586 -0.00234607 -0 0.00505859 -0 0.0050586)
(0.00505858 -0.0023461 -0 0.00505859 -0 0.00505859)
(0.00505867 -0.00234622 -0 0.00505868 -0 0.00505868)
(0.00505605 -0.00234479 -0 0.00505605 -0 0.00505605)
(0.00505602 -0.00234482 -0 0.00505602 -0 0.00505602)
(0.00505601 -0.00234486 -0 0.00505602 -0 0.00505602)
(0.00505611 -0.00234498 -0 0.00505611 -0 0.00505611)
(0.00504855 -0.00234144 -0 0.00504855 -0 0.00504855)
(0.00504852 -0.00234146 -0 0.00504852 -0 0.00504852)
(0.00504852 -0.00234151 -0 0.00504853 -0 0.00504853)
(0.00504861 -0.00234164 -0 0.00504862 -0 0.00504861)
(0.00503691 -0.00233632 -0 0.00503691 -0 0.00503691)
(0.00503688 -0.00233635 -0 0.00503688 -0 0.00503688)
(0.00503689 -0.0023364 -0 0.00503689 -0 0.00503689)
(0.00503698 -0.00233652 -0 0.00503698 -0 0.00503698)
(0.00502175 -0.00232969 -0 0.00502175 -0 0.00502175)
(0.00502172 -0.00232972 -0 0.00502172 -0 0.00502172)
(0.00502173 -0.00232977 -0 0.00502173 -0 0.00502173)
(0.00502181 -0.00232989 -0 0.00502181 -0 0.00502181)
(0.00500355 -0.00232175 -0 0.00500355 -0 0.00500355)
(0.00500352 -0.00232177 -0 0.00500352 -0 0.00500352)
(0.00500353 -0.00232183 -0 0.00500353 -0 0.00500353)
(0.00500361 -0.00232194 -0 0.00500361 -0 0.00500361)
(0.00498272 -0.00231265 -0 0.00498272 -0 0.00498272)
(0.00498269 -0.00231268 -0 0.0049827 -0 0.0049827)
(0.00498271 -0.00231273 -0 0.0049827 -0 0.00498271)
(0.00498278 -0.00231283 -0 0.00498278 -0 0.00498278)
(0.00495959 -0.00230253 -0 0.00495959 -0 0.00495959)
(0.00495956 -0.00230256 -0 0.00495957 -0 0.00495957)
(0.00495958 -0.00230261 -0 0.00495958 -0 0.00495958)
(0.00495965 -0.0023027 -0 0.00495964 -0 0.00495964)
(0.00493443 -0.0022915 -0 0.00493444 -0 0.00493443)
(0.00493441 -0.00229152 -0 0.00493442 -0 0.00493441)
(0.00493443 -0.00229156 -0 0.00493442 -0 0.00493442)
(0.00493448 -0.00229163 -0 0.00493448 -0 0.00493448)
(0.00490748 -0.00227962 -0 0.00490749 -0 0.00490749)
(0.00490747 -0.00227964 -0 0.00490747 -0 0.00490747)
(0.00490748 -0.00227968 -0 0.00490748 -0 0.00490748)
(0.00490753 -0.00227973 -0 0.00490752 -0 0.00490753)
(0.00487894 -0.00226698 -0 0.00487895 -0 0.00487895)
(0.00487893 -0.00226699 -0 0.00487893 -0 0.00487893)
(0.00487895 -0.00226703 -0 0.00487894 -0 0.00487894)
(0.00487898 -0.00226707 -0 0.00487898 -0 0.00487898)
(0.00484898 -0.00225376 -0 0.00484899 -0 0.00484898)
(0.00484897 -0.00225377 -0 0.00484898 -0 0.00484897)
(0.00484899 -0.00225381 -0 0.00484898 -0 0.00484898)
(0.00484902 -0.00225383 -0 0.00484901 -0 0.00484901)
(0.00481774 -0.00224025 -0 0.00481774 -0 0.00481774)
(0.00481773 -0.00224025 -0 0.00481774 -0 0.00481773)
(0.00481775 -0.00224025 -0 0.00481774 -0 0.00481775)
(0.00481777 -0.00224026 -0 0.00481776 -0 0.00481776)
(0.0047853 -0.00222517 -0 0.00478531 -0 0.00478531)
(0.0047853 -0.00222517 -0 0.0047853 -0 0.0047853)
(0.00478532 -0.00222517 -0 0.00478531 -0 0.00478531)
(0.00478532 -0.00222517 -0 0.00478532 -0 0.00478532)
(0.00475173 -0.00220955 -0 0.00475173 -0 0.00475173)
(0.00475172 -0.00220955 -0 0.00475173 -0 0.00475173)
(0.00475174 -0.00220956 -0 0.00475174 -0 0.00475174)
(0.00475174 -0.00220956 -0 0.00475173 -0 0.00475173)
(0.00471704 -0.00219342 -0 0.00471704 -0 0.00471704)
(0.00471704 -0.00219343 -0 0.00471705 -0 0.00471704)
(0.00471706 -0.00219343 -0 0.00471706 -0 0.00471706)
(0.00471704 -0.00219342 -0 0.00471704 -0 0.00471704)
(0.00468127 -0.00217679 -0 0.00468127 -0 0.00468127)
(0.00468128 -0.00217679 -0 0.00468128 -0 0.00468128)
(0.0046813 -0.0021768 -0 0.0046813 -0 0.0046813)
(0.00468127 -0.00217679 -0 0.00468127 -0 0.00468127)
(0.00464444 -0.00215967 -0 0.00464444 -0 0.00464444)
(0.00464445 -0.00215967 -0 0.00464445 -0 0.00464445)
(0.00464447 -0.00215968 -0 0.00464448 -0 0.00464447)
(0.00464443 -0.00215966 -0 0.00464443 -0 0.00464443)
(0.00460657 -0.00214205 -0 0.00460657 -0 0.00460657)
(0.00460658 -0.00214206 -0 0.00460658 -0 0.00460658)
(0.0046066 -0.00214207 -0 0.00460661 -0 0.00460661)
(0.00460655 -0.00214205 -0 0.00460655 -0 0.00460655)
(0.00456767 -0.00212396 -0 0.00456766 -0 0.00456766)
(0.00456768 -0.00212397 -0 0.00456768 -0 0.00456768)
(0.00456771 -0.00212398 -0 0.00456771 -0 0.00456771)
(0.00456765 -0.00212396 -0 0.00456765 -0 0.00456765)
(0.00452775 -0.0021054 -0 0.00452774 -0 0.00452775)
(0.00452776 -0.00210541 -0 0.00452776 -0 0.00452776)
(0.00452779 -0.00210542 -0 0.0045278 -0 0.00452779)
(0.00452773 -0.00210539 -0 0.00452773 -0 0.00452773)
(0.00448682 -0.00208637 -0 0.00448682 -0 0.00448682)
(0.00448684 -0.00208638 -0 0.00448684 -0 0.00448684)
(0.00448687 -0.0020864 -0 0.00448688 -0 0.00448688)
(0.0044868 -0.00208636 -0 0.0044868 -0 0.0044868)
(0.0044449 -0.00206688 -0 0.0044449 -0 0.0044449)
(0.00444492 -0.00206689 -0 0.00444492 -0 0.00444492)
(0.00444496 -0.00206691 -0 0.00444496 -0 0.00444496)
(0.00444488 -0.00206687 -0 0.00444488 -0 0.00444488)
(0.004402 -0.00204693 -0 0.004402 -0 0.004402)
(0.00440202 -0.00204694 -0 0.00440202 -0 0.00440202)
(0.00440206 -0.00204696 -0 0.00440206 -0 0.00440206)
(0.00440198 -0.00204692 -0 0.00440198 -0 0.00440198)
(0.00435812 -0.00202653 -0 0.00435812 -0 0.00435812)
(0.00435814 -0.00202654 -0 0.00435814 -0 0.00435814)
(0.00435819 -0.00202656 -0 0.00435819 -0 0.00435819)
(0.0043581 -0.00202652 -0 0.0043581 -0 0.0043581)
(0.00431329 -0.00200568 -0 0.00431329 -0 0.00431329)
(0.00431331 -0.00200569 -0 0.00431331 -0 0.00431331)
(0.00431336 -0.00200571 -0 0.00431336 -0 0.00431336)
(0.00431327 -0.00200567 -0 0.00431327 -0 0.00431327)
(0.00426753 -0.0019844 -0 0.00426753 -0 0.00426753)
(0.00426755 -0.00198441 -0 0.00426755 -0 0.00426755)
(0.0042676 -0.00198444 -0 0.00426761 -0 0.0042676)
(0.00426751 -0.00198439 -0 0.00426751 -0 0.00426751)
(0.00422089 -0.00196271 -0 0.00422088 -0 0.00422089)
(0.00422091 -0.00196272 -0 0.00422091 -0 0.00422091)
(0.00422096 -0.00196275 -0 0.00422097 -0 0.00422097)
(0.00422087 -0.00196271 -0 0.00422087 -0 0.00422087)
(0.00417343 -0.00194064 -0 0.00417343 -0 0.00417343)
(0.00417346 -0.00194066 -0 0.00417345 -0 0.00417346)
(0.00417351 -0.00194068 -0 0.00417352 -0 0.00417351)
(0.00417341 -0.00194064 -0 0.00417342 -0 0.00417342)
(0.00412526 -0.00191824 -0 0.00412525 -0 0.00412525)
(0.00412528 -0.00191826 -0 0.00412528 -0 0.00412528)
(0.00412533 -0.00191828 -0 0.00412534 -0 0.00412534)
(0.00412524 -0.00191824 -0 0.00412524 -0 0.00412524)
(0.00407649 -0.00189557 -0 0.00407648 -0 0.00407649)
(0.00407651 -0.00189558 -0 0.00407652 -0 0.00407651)
(0.00407657 -0.00189561 -0 0.00407658 -0 0.00407657)
(0.00407647 -0.00189556 -0 0.00407647 -0 0.00407647)
(0.0040273 -0.00187269 -0 0.00402729 -0 0.00402729)
(0.00402731 -0.0018727 -0 0.00402732 -0 0.00402732)
(0.00402737 -0.00187273 -0 0.00402738 -0 0.00402737)
(0.00402728 -0.00187268 -0 0.00402727 -0 0.00402727)
(0.00397785 -0.0018497 -0 0.00397785 -0 0.00397785)
(0.00397786 -0.00184971 -0 0.00397788 -0 0.00397787)
(0.00397792 -0.00184973 -0 0.00397792 -0 0.00397792)
(0.00397784 -0.00184969 -0 0.00397782 -0 0.00397783)
(0.00392833 -0.00182668 -0 0.00392835 -0 0.00392834)
(0.00392834 -0.00182669 -0 0.00392837 -0 0.00392836)
(0.00392841 -0.00182671 -0 0.00392839 -0 0.0039284)
(0.00392834 -0.00182667 -0 0.00392831 -0 0.00392833)
(0.00387888 -0.00180369 -0 0.00387893 -0 0.0038789)
(0.0038789 -0.0018037 -0 0.00387893 -0 0.00387892)
(0.00387898 -0.00180372 -0 0.00387894 -0 0.00387896)
(0.00387892 -0.00180369 -0 0.00387889 -0 0.0038789)
(0.00382955 -0.00178076 -0 0.00382962 -0 0.00382959)
(0.00382958 -0.00178076 -0 0.00382961 -0 0.00382959)
(0.00382967 -0.00178078 -0 0.0038296 -0 0.00382963)
(0.00382962 -0.00178076 -0 0.00382958 -0 0.0038296)
(0.00378022 -0.00175366 -0 0.00378029 -0 0.00378026)
(0.00378025 -0.00175355 -0 0.00378028 -0 0.00378026)
(0.00378033 -0.00175348 -0 0.00378027 -0 0.0037803)
(0.00378029 -0.00175294 -0 0.00378025 -0 0.00378027)
(0.00373078 -0.00172781 -0 0.00373083 -0 0.0037308)
(0.00373079 -0.00172766 -0 0.00373082 -0 0.00373081)
(0.00373087 -0.0017276 -0 0.00373081 -0 0.00373084)
(0.00373082 -0.00172727 -0 0.00373079 -0 0.0037308)
(0.0036812 -0.00170189 -0 0.00368123 -0 0.00368121)
(0.00368121 -0.00170171 -0 0.00368124 -0 0.00368122)
(0.00368127 -0.00170163 -0 0.00368123 -0 0.00368125)
(0.00368122 -0.00170125 -0 0.0036812 -0 0.00368121)
(0.00363149 -0.00167551 -0 0.00363151 -0 0.0036315)
(0.0036315 -0.00167532 -0 0.00363152 -0 0.00363151)
(0.00363155 -0.00167523 -0 0.00363153 -0 0.00363154)
(0.0036315 -0.00167481 -0 0.00363148 -0 0.00363149)
(0.00358167 -0.00164868 -0 0.00358167 -0 0.00358167)
(0.00358167 -0.00164848 -0 0.00358169 -0 0.00358168)
(0.00358171 -0.00164839 -0 0.0035817 -0 0.0035817)
(0.00358166 -0.00164793 -0 0.00358164 -0 0.00358165)
(0.00353172 -0.00162139 -0 0.00353172 -0 0.00353172)
(0.00353172 -0.00162121 -0 0.00353174 -0 0.00353173)
(0.00353176 -0.0016211 -0 0.00353176 -0 0.00353176)
(0.00353171 -0.00162063 -0 0.00353169 -0 0.0035317)
(0.00348167 -0.00159365 -0 0.00348166 -0 0.00348166)
(0.00348167 -0.00159348 -0 0.00348168 -0 0.00348167)
(0.0034817 -0.00159338 -0 0.0034817 -0 0.0034817)
(0.00348165 -0.00159289 -0 0.00348164 -0 0.00348164)
(0.00343151 -0.00156546 -0 0.0034315 -0 0.0034315)
(0.00343151 -0.00156531 -0 0.00343152 -0 0.00343151)
(0.00343153 -0.0015652 -0 0.00343155 -0 0.00343154)
(0.00343148 -0.00156471 -0 0.00343148 -0 0.00343148)
(0.00338126 -0.00153681 -0 0.00338124 -0 0.00338125)
(0.00338126 -0.00153669 -0 0.00338126 -0 0.00338126)
(0.00338128 -0.00153658 -0 0.00338129 -0 0.00338129)
(0.00338123 -0.00153609 -0 0.00338122 -0 0.00338122)
(0.00333092 -0.00150772 -0 0.0033309 -0 0.00333091)
(0.00333092 -0.00150762 -0 0.00333092 -0 0.00333092)
(0.00333094 -0.00150751 -0 0.00333096 -0 0.00333095)
(0.00333088 -0.00150704 -0 0.00333088 -0 0.00333088)
(0.0032805 -0.00147816 -0 0.00328048 -0 0.00328049)
(0.00328051 -0.0014781 -0 0.0032805 -0 0.0032805)
(0.00328052 -0.001478 -0 0.00328054 -0 0.00328053)
(0.00328047 -0.00147754 -0 0.00328047 -0 0.00328047)
(0.00323003 -0.00144817 -0 0.00323001 -0 0.00323002)
(0.00323004 -0.00144813 -0 0.00323003 -0 0.00323003)
(0.00323005 -0.00144803 -0 0.00323008 -0 0.00323007)
(0.00323 -0.00144759 -0 0.00323001 -0 0.00323001)
(0.00317953 -0.00141772 -0 0.0031795 -0 0.00317952)
(0.00317954 -0.00141771 -0 0.00317952 -0 0.00317953)
(0.00317955 -0.0014176 -0 0.00317957 -0 0.00317956)
(0.0031795 -0.0014172 -0 0.00317951 -0 0.0031795)
(0.00312901 -0.00138683 -0 0.00312899 -0 0.003129)
(0.00312902 -0.00138682 -0 0.003129 -0 0.00312901)
(0.00312903 -0.00138673 -0 0.00312905 -0 0.00312904)
(0.00312898 -0.00138635 -0 0.00312899 -0 0.00312899)
(0.0030785 -0.00135547 -0 0.00307848 -0 0.00307849)
(0.00307851 -0.00135547 -0 0.0030785 -0 0.0030785)
(0.00307852 -0.00135539 -0 0.00307854 -0 0.00307853)
(0.00307848 -0.00135504 -0 0.00307849 -0 0.00307848)
(0.00302804 -0.00132364 -0 0.00302802 -0 0.00302803)
(0.00302805 -0.00132366 -0 0.00302803 -0 0.00302804)
(0.00302806 -0.00132359 -0 0.00302808 -0 0.00302807)
(0.00302801 -0.00132327 -0 0.00302803 -0 0.00302802)
(0.00297765 -0.00129135 -0 0.00297763 -0 0.00297764)
(0.00297766 -0.00129137 -0 0.00297764 -0 0.00297765)
(0.00297767 -0.00129132 -0 0.00297769 -0 0.00297768)
(0.00297763 -0.00129102 -0 0.00297764 -0 0.00297764)
(0.00292737 -0.00125859 -0 0.00292736 -0 0.00292736)
(0.00292738 -0.00125861 -0 0.00292736 -0 0.00292737)
(0.00292739 -0.00125857 -0 0.00292741 -0 0.0029274)
(0.00292735 -0.00125831 -0 0.00292737 -0 0.00292736)
(0.00287725 -0.00122535 -0 0.00287723 -0 0.00287724)
(0.00287726 -0.00122538 -0 0.00287724 -0 0.00287725)
(0.00287727 -0.00122535 -0 0.00287728 -0 0.00287727)
(0.00287723 -0.00122511 -0 0.00287725 -0 0.00287724)
(0.00282732 -0.00119163 -0 0.00282731 -0 0.00282731)
(0.00282733 -0.00119166 -0 0.00282731 -0 0.00282732)
(0.00282734 -0.00119163 -0 0.00282735 -0 0.00282734)
(0.0028273 -0.00119143 -0 0.00282732 -0 0.00282731)
(0.00277764 -0.00115742 -0 0.00277763 -0 0.00277763)
(0.00277764 -0.00115745 -0 0.00277763 -0 0.00277764)
(0.00277766 -0.00115743 -0 0.00277767 -0 0.00277766)
(0.00277762 -0.00115726 -0 0.00277764 -0 0.00277763)
(0.00272826 -0.00112271 -0 0.00272824 -0 0.00272825)
(0.00272826 -0.00112274 -0 0.00272825 -0 0.00272825)
(0.00272827 -0.00112273 -0 0.00272828 -0 0.00272828)
(0.00272824 -0.00112259 -0 0.00272825 -0 0.00272825)
(0.00267923 -0.00108751 -0 0.00267922 -0 0.00267923)
(0.00267924 -0.00108753 -0 0.00267922 -0 0.00267923)
(0.00267925 -0.00108754 -0 0.00267926 -0 0.00267925)
(0.00267922 -0.00108742 -0 0.00267923 -0 0.00267922)
(0.00263063 -0.00105179 -0 0.00263062 -0 0.00263062)
(0.00263063 -0.00105183 -0 0.00263062 -0 0.00263063)
(0.00263064 -0.00105183 -0 0.00263065 -0 0.00263065)
(0.00263062 -0.00105175 -0 0.00263063 -0 0.00263062)
(0.00258252 -0.00101557 -0 0.00258251 -0 0.00258251)
(0.00258252 -0.0010156 -0 0.00258251 -0 0.00258252)
(0.00258253 -0.00101562 -0 0.00258254 -0 0.00258253)
(0.00258251 -0.00101556 -0 0.00258252 -0 0.00258251)
(0.00253497 -0.000978837 -0 0.00253497 -0 0.00253497)
(0.00253498 -0.000978866 -0 0.00253497 -0 0.00253497)
(0.00253498 -0.000978879 -0 0.00253499 -0 0.00253499)
(0.00253497 -0.000978848 -0 0.00253498 -0 0.00253497)
(0.00248808 -0.000941572 -0 0.00248807 -0 0.00248808)
(0.00248808 -0.000941599 -0 0.00248807 -0 0.00248808)
(0.00248809 -0.000941622 -0 0.00248809 -0 0.00248809)
(0.00248807 -0.000941616 -0 0.00248808 -0 0.00248808)
(0.00244192 -0.000903775 -0 0.00244191 -0 0.00244192)
(0.00244192 -0.000903816 -0 0.00244191 -0 0.00244192)
(0.00244193 -0.000903831 -0 0.00244193 -0 0.00244193)
(0.00244192 -0.000903848 -0 0.00244192 -0 0.00244192)
(0.00239659 -0.000865456 -0 0.00239659 -0 0.00239659)
(0.00239659 -0.000865482 -0 0.00239658 -0 0.00239659)
(0.0023966 -0.000865508 -0 0.0023966 -0 0.0023966)
(0.00239659 -0.000865542 -0 0.0023966 -0 0.0023966)
(0.0023522 -0.000826583 -0 0.00235219 -0 0.00235219)
(0.00235219 -0.00082661 -0 0.00235219 -0 0.00235219)
(0.0023522 -0.000826644 -0 0.0023522 -0 0.0023522)
(0.0023522 -0.000826689 -0 0.00235221 -0 0.0023522)
(0.00230884 -0.000787162 -0 0.00230884 -0 0.00230884)
(0.00230884 -0.000787202 -0 0.00230884 -0 0.00230884)
(0.00230884 -0.000787219 -0 0.00230885 -0 0.00230885)
(0.00230885 -0.000787285 -0 0.00230885 -0 0.00230885)
(0.00226664 -0.000747185 -0 0.00226664 -0 0.00226664)
(0.00226664 -0.000747224 -0 0.00226664 -0 0.00226664)
(0.00226665 -0.000747242 -0 0.00226665 -0 0.00226665)
(0.00226666 -0.000747323 -0 0.00226666 -0 0.00226666)
(0.00222573 -0.000706641 -0 0.00222572 -0 0.00222572)
(0.00222572 -0.000706685 -0 0.00222572 -0 0.00222572)
(0.00222573 -0.000706699 -0 0.00222573 -0 0.00222573)
(0.00222574 -0.000706794 -0 0.00222574 -0 0.00222574)
(0.00218621 -0.000665527 -0 0.00218621 -0 0.00218621)
(0.00218621 -0.000665574 -0 0.00218621 -0 0.00218621)
(0.00218621 -0.000665586 -0 0.00218621 -0 0.00218621)
(0.00218623 -0.00066569 -0 0.00218623 -0 0.00218623)
(0.00214824 -0.000623836 -0 0.00214824 -0 0.00214824)
(0.00214824 -0.000623881 -0 0.00214824 -0 0.00214824)
(0.00214824 -0.000623889 -0 0.00214824 -0 0.00214824)
(0.00214825 -0.000624005 -0 0.00214825 -0 0.00214825)
(0.00211194 -0.000581544 -0 0.00211194 -0 0.00211194)
(0.00211194 -0.000581605 -0 0.00211195 -0 0.00211194)
(0.00211195 -0.000581604 -0 0.00211195 -0 0.00211195)
(0.00211196 -0.000581729 -0 0.00211196 -0 0.00211196)
(0.00207748 -0.000538673 -0 0.00207748 -0 0.00207748)
(0.00207748 -0.000538727 -0 0.00207748 -0 0.00207748)
(0.00207748 -0.000538731 -0 0.00207748 -0 0.00207748)
(0.0020775 -0.000538849 -0 0.0020775 -0 0.0020775)
(0.00204499 -0.000495193 -0 0.00204499 -0 0.00204499)
(0.00204499 -0.000495244 -0 0.00204499 -0 0.00204499)
(0.00204499 -0.000495246 -0 0.00204499 -0 0.00204499)
(0.00204502 -0.000495365 -0 0.00204501 -0 0.00204501)
(0.00201464 -0.0004511 -0 0.00201464 -0 0.00201464)
(0.00201464 -0.000451148 -0 0.00201464 -0 0.00201464)
(0.00201464 -0.000451154 -0 0.00201464 -0 0.00201464)
(0.00201466 -0.000451261 -0 0.00201466 -0 0.00201466)
(0.00198658 -0.000406384 -0 0.00198658 -0 0.00198658)
(0.00198658 -0.000406426 -0 0.00198658 -0 0.00198658)
(0.00198658 -0.000406431 -0 0.00198658 -0 0.00198658)
(0.0019866 -0.000406534 -0 0.0019866 -0 0.0019866)
(0.00196097 -0.000361046 -0 0.00196098 -0 0.00196097)
(0.00196097 -0.000361062 -0 0.00196097 -0 0.00196097)
(0.00196098 -0.000361088 -0 0.00196097 -0 0.00196097)
(0.001961 -0.00036117 -0 0.00196099 -0 0.001961)
(0.00193798 -0.000315053 -0 0.00193799 -0 0.00193799)
(0.00193798 -0.00031507 -0 0.00193798 -0 0.00193798)
(0.00193799 -0.000315088 -0 0.00193798 -0 0.00193799)
(0.00193801 -0.000315165 -0 0.00193801 -0 0.00193801)
(0.00191778 -0.000268412 -0 0.00191779 -0 0.00191778)
(0.00191778 -0.000268433 -0 0.00191778 -0 0.00191778)
(0.00191779 -0.000268442 -0 0.00191778 -0 0.00191778)
(0.00191781 -0.000268506 -0 0.0019178 -0 0.00191781)
(0.00190053 -0.00022111 -0 0.00190054 -0 0.00190053)
(0.00190053 -0.000221123 -0 0.00190053 -0 0.00190053)
(0.00190054 -0.000221131 -0 0.00190053 -0 0.00190053)
(0.00190056 -0.000221186 -0 0.00190055 -0 0.00190055)
(0.0018864 -0.000173135 -0 0.0018864 -0 0.0018864)
(0.0018864 -0.000173146 -0 0.0018864 -0 0.0018864)
(0.0018864 -0.000173151 -0 0.0018864 -0 0.0018864)
(0.00188643 -0.000173194 -0 0.00188642 -0 0.00188642)
(0.00187555 -0.00012448 -0 0.00187556 -0 0.00187556)
(0.00187555 -0.000124487 -0 0.00187556 -0 0.00187556)
(0.00187556 -0.00012449 -0 0.00187556 -0 0.00187556)
(0.00187558 -0.000124521 -0 0.00187557 -0 0.00187558)
(0.00186816 -7.51329e-05 -0 0.00186816 -0 0.00186816)
(0.00186816 -7.51374e-05 -0 0.00186816 -0 0.00186816)
(0.00186817 -7.5139e-05 -0 0.00186816 -0 0.00186816)
(0.00186819 -7.5158e-05 -0 0.00186818 -0 0.00186818)
(0.00186438 -2.51433e-05 -0 0.00186439 -0 0.00186439)
(0.00186438 -2.51452e-05 -0 0.00186439 -0 0.00186438)
(0.00186439 -2.51458e-05 -0 0.00186439 -0 0.00186439)
(0.00186441 -2.51521e-05 -0 0.0018644 -0 0.00186441)
)
;

boundaryField
{
    inlet
    {
        type            cyclic;
    }
    outlet
    {
        type            cyclic;
    }
    fixedWalls-bottom
    {
        type            kqRWallFunction;
        value           nonuniform List<symmTensor> 4((4.60875e-06 -0 -0 4.60875e-06 -0 4.60875e-06) (4.60898e-06 -0 -0 4.60898e-06 -0 4.60898e-06) (4.60868e-06 -0 -0 4.60868e-06 -0 4.60868e-06) (4.60866e-06 -0 -0 4.60866e-06 -0 4.60866e-06));
    }
    fixedWalls-top
    {
        type            symmetry;
    }
    frontAndBack
    {
        type            empty;
    }
}


// ************************************************************************* //
