/*--------------------------------*- C++ -*----------------------------------*\
  =========                 |
  \\      /  F ield         | OpenFOAM: The Open Source CFD Toolbox
   \\    /   O peration     | Website:  https://openfoam.org
    \\  /    A nd           | Version:  10
     \\/     M anipulation  |
\*---------------------------------------------------------------------------*/
FoamFile
{
    format      ascii;
    class       volVectorField;
    location    "5000";
    object      U;
}
// * * * * * * * * * * * * * * * * * * * * * * * * * * * * * * * * * * * * * //

dimensions      [0 1 -1 0 0 0 0];

internalField   nonuniform List<vector> 
400
(
(0.0654632 -5.55328e-10 0)
(0.0654637 -8.59863e-11 0)
(0.0654631 5.42472e-10 0)
(0.0654627 8.61355e-11 0)
(0.196181 -9.84294e-09 0)
(0.196183 5.04073e-10 0)
(0.196181 9.81801e-09 0)
(0.19618 -5.03495e-10 0)
(0.320258 -2.86061e-08 0)
(0.32026 3.51743e-09 0)
(0.320257 2.85821e-08 0)
(0.320256 -3.51632e-09 0)
(0.421074 -5.12874e-08 0)
(0.421075 9.19252e-09 0)
(0.421072 5.12653e-08 0)
(0.42107 -9.19091e-09 0)
(0.495482 -7.23964e-08 0)
(0.495483 1.62197e-08 0)
(0.495481 7.23749e-08 0)
(0.495479 -1.62178e-08 0)
(0.551373 -8.88721e-08 0)
(0.551373 2.32885e-08 0)
(0.551372 8.8851e-08 0)
(0.551371 -2.32863e-08 0)
(0.59503 -1.00003e-07 0)
(0.59503 2.90983e-08 0)
(0.595028 9.99827e-08 0)
(0.595028 -2.9096e-08 0)
(0.63029 -1.0578e-07 0)
(0.630289 3.40397e-08 0)
(0.630289 1.0576e-07 0)
(0.630289 -3.40372e-08 0)
(0.659602 -1.06551e-07 0)
(0.659601 3.92101e-08 0)
(0.6596 1.0653e-07 0)
(0.659601 -3.92075e-08 0)
(0.684565 -1.02512e-07 0)
(0.684564 4.56941e-08 0)
(0.684563 1.02492e-07 0)
(0.684565 -4.56914e-08 0)
(0.706256 -9.35573e-08 0)
(0.706255 5.4e-08 0)
(0.706254 9.35377e-08 0)
(0.706257 -5.39971e-08 0)
(0.725429 -8.01289e-08 0)
(0.725427 6.35569e-08 0)
(0.725427 8.01095e-08 0)
(0.72543 -6.35541e-08 0)
(0.742635 -6.48378e-08 0)
(0.742633 7.27846e-08 0)
(0.742633 6.48186e-08 0)
(0.742636 -7.27817e-08 0)
(0.758265 -4.8689e-08 0)
(0.758264 8.10871e-08 0)
(0.758264 4.86699e-08 0)
(0.758267 -8.10839e-08 0)
(0.77259 -3.42175e-08 0)
(0.772589 8.76552e-08 0)
(0.772589 3.41987e-08 0)
(0.772591 -8.7652e-08 0)
(0.785817 -2.15951e-08 0)
(0.785816 9.30075e-08 0)
(0.785816 2.15765e-08 0)
(0.785818 -9.30043e-08 0)
(0.798107 -1.0959e-08 0)
(0.798107 9.72877e-08 0)
(0.798107 1.09405e-08 0)
(0.798108 -9.72843e-08 0)
(0.809591 -2.44053e-09 0)
(0.80959 1.00486e-07 0)
(0.80959 2.42228e-09 0)
(0.809591 -1.00482e-07 0)
(0.82037 3.87161e-09 0)
(0.82037 1.02475e-07 0)
(0.82037 -3.88968e-09 0)
(0.820371 -1.02472e-07 0)
(0.830531 8.01667e-09 0)
(0.830531 1.03209e-07 0)
(0.830531 -8.03456e-09 0)
(0.830531 -1.03205e-07 0)
(0.840142 1.01095e-08 0)
(0.840142 1.02647e-07 0)
(0.840142 -1.01272e-08 0)
(0.840142 -1.02643e-07 0)
(0.849263 1.03102e-08 0)
(0.849263 1.00773e-07 0)
(0.849263 -1.03277e-08 0)
(0.849263 -1.00769e-07 0)
(0.857942 8.81111e-09 0)
(0.857942 9.7641e-08 0)
(0.857942 -8.82848e-09 0)
(0.857942 -9.76373e-08 0)
(0.866221 5.81004e-09 0)
(0.866221 9.33956e-08 0)
(0.866222 -5.82724e-09 0)
(0.866221 -9.33919e-08 0)
(0.874136 1.55297e-09 0)
(0.874136 8.83197e-08 0)
(0.874137 -1.56999e-09 0)
(0.874135 -8.83159e-08 0)
(0.881717 -3.66474e-09 0)
(0.881717 8.28678e-08 0)
(0.881718 3.64789e-09 0)
(0.881717 -8.28639e-08 0)
(0.888992 -9.48068e-09 0)
(0.888992 7.76037e-08 0)
(0.888993 9.464e-09 0)
(0.888991 -7.75998e-08 0)
(0.895983 -1.5402e-08 0)
(0.895984 7.30158e-08 0)
(0.895984 1.53855e-08 0)
(0.895983 -7.30119e-08 0)
(0.902713 -2.02862e-08 0)
(0.902713 6.88797e-08 0)
(0.902714 2.02698e-08 0)
(0.902713 -6.88757e-08 0)
(0.909204 -2.36357e-08 0)
(0.909204 6.5303e-08 0)
(0.909204 2.36195e-08 0)
(0.909204 -6.52989e-08 0)
(0.915478 -2.48932e-08 0)
(0.915478 6.19624e-08 0)
(0.915478 2.48772e-08 0)
(0.915478 -6.19582e-08 0)
(0.921551 -2.44382e-08 0)
(0.921551 5.90676e-08 0)
(0.921552 2.44223e-08 0)
(0.921551 -5.90634e-08 0)
(0.927439 -2.29391e-08 0)
(0.927439 5.68374e-08 0)
(0.927439 2.29234e-08 0)
(0.927439 -5.68332e-08 0)
(0.933152 -2.09723e-08 0)
(0.933151 5.52917e-08 0)
(0.933152 2.09567e-08 0)
(0.933152 -5.52875e-08 0)
(0.9387 -1.89086e-08 0)
(0.9387 5.42926e-08 0)
(0.938701 1.88932e-08 0)
(0.938701 -5.42883e-08 0)
(0.944095 -1.69314e-08 0)
(0.944094 5.36387e-08 0)
(0.944095 1.69162e-08 0)
(0.944095 -5.36344e-08 0)
(0.949342 -1.51021e-08 0)
(0.949342 5.31403e-08 0)
(0.949342 1.5087e-08 0)
(0.949342 -5.3136e-08 0)
(0.954451 -1.34309e-08 0)
(0.954451 5.26649e-08 0)
(0.954452 1.34161e-08 0)
(0.954452 -5.26605e-08 0)
(0.959429 -1.193e-08 0)
(0.959429 5.21633e-08 0)
(0.959429 1.19153e-08 0)
(0.959429 -5.21589e-08 0)
(0.964281 -1.06301e-08 0)
(0.964281 5.16845e-08 0)
(0.964281 1.06156e-08 0)
(0.964281 -5.16801e-08 0)
(0.969014 -9.55378e-09 0)
(0.969014 5.13774e-08 0)
(0.969014 9.5394e-09 0)
(0.969014 -5.1373e-08 0)
(0.973632 -8.6507e-09 0)
(0.973632 5.14693e-08 0)
(0.973632 8.63648e-09 0)
(0.973632 -5.14649e-08 0)
(0.978139 -7.71575e-09 0)
(0.978138 5.22023e-08 0)
(0.978138 7.7017e-09 0)
(0.978139 -5.21979e-08 0)
(0.982537 -6.33571e-09 0)
(0.982536 5.37103e-08 0)
(0.982536 6.32182e-09 0)
(0.982537 -5.37058e-08 0)
(0.986827 -3.93037e-09 0)
(0.986827 5.58382e-08 0)
(0.986827 3.91666e-09 0)
(0.986827 -5.58338e-08 0)
(0.99101 3.175e-11 0)
(0.991009 5.79459e-08 0)
(0.99101 -4.52456e-11 0)
(0.99101 -5.79414e-08 0)
(0.995083 5.5896e-09 0)
(0.995083 5.87987e-08 0)
(0.995083 -5.60288e-09 0)
(0.995083 -5.87944e-08 0)
(0.999044 1.1648e-08 0)
(0.999044 5.6709e-08 0)
(0.999044 -1.16612e-08 0)
(0.999044 -5.67047e-08 0)
(1.00289 1.53262e-08 0)
(1.00289 5.0094e-08 0)
(1.00289 -1.53395e-08 0)
(1.00289 -5.00893e-08 0)
(1.00662 1.18249e-08 0)
(1.00662 3.84247e-08 0)
(1.00662 -1.18377e-08 0)
(1.00662 -3.84194e-08 0)
(1.01023 -3.98102e-09 0)
(1.01023 2.30128e-08 0)
(1.01023 3.96907e-09 0)
(1.01023 -2.30078e-08 0)
(1.01374 -3.27298e-08 0)
(1.01374 6.37753e-09 0)
(1.01374 3.27172e-08 0)
(1.01374 -6.37485e-09 0)
(1.01716 -6.44535e-08 0)
(1.01716 -1.0504e-08 0)
(1.01716 6.44406e-08 0)
(1.01716 1.05076e-08 0)
(1.0205 -9.55296e-08 0)
(1.0205 -2.55728e-08 0)
(1.0205 9.55178e-08 0)
(1.0205 2.55783e-08 0)
(1.02377 -1.15983e-07 0)
(1.02377 -3.95615e-08 0)
(1.02377 1.15971e-07 0)
(1.02377 3.95662e-08 0)
(1.02697 -1.28278e-07 0)
(1.02697 -5.19583e-08 0)
(1.02697 1.28267e-07 0)
(1.02697 5.19628e-08 0)
(1.0301 -1.34618e-07 0)
(1.0301 -6.24266e-08 0)
(1.0301 1.34607e-07 0)
(1.0301 6.24309e-08 0)
(1.03317 -1.3624e-07 0)
(1.03317 -7.08392e-08 0)
(1.03317 1.36229e-07 0)
(1.03317 7.08436e-08 0)
(1.03618 -1.34015e-07 0)
(1.03618 -7.71512e-08 0)
(1.03618 1.34004e-07 0)
(1.03618 7.71556e-08 0)
(1.03913 -1.28752e-07 0)
(1.03913 -8.13948e-08 0)
(1.03913 1.28741e-07 0)
(1.03913 8.13992e-08 0)
(1.04202 -1.2124e-07 0)
(1.04202 -8.36797e-08 0)
(1.04202 1.21229e-07 0)
(1.04202 8.36841e-08 0)
(1.04485 -1.1222e-07 0)
(1.04485 -8.41232e-08 0)
(1.04485 1.12209e-07 0)
(1.04485 8.41276e-08 0)
(1.04763 -1.02293e-07 0)
(1.04763 -8.25819e-08 0)
(1.04763 1.02283e-07 0)
(1.04763 8.25862e-08 0)
(1.05036 -9.19855e-08 0)
(1.05036 -7.92335e-08 0)
(1.05036 9.19753e-08 0)
(1.05036 7.92378e-08 0)
(1.05303 -8.15189e-08 0)
(1.05303 -7.41451e-08 0)
(1.05303 8.15089e-08 0)
(1.05303 7.41493e-08 0)
(1.05566 -7.12101e-08 0)
(1.05566 -6.77952e-08 0)
(1.05566 7.12002e-08 0)
(1.05566 6.77993e-08 0)
(1.05823 -6.11767e-08 0)
(1.05823 -6.06558e-08 0)
(1.05823 6.11671e-08 0)
(1.05823 6.06599e-08 0)
(1.06076 -5.16423e-08 0)
(1.06076 -5.3009e-08 0)
(1.06076 5.16329e-08 0)
(1.06076 5.30131e-08 0)
(1.06323 -4.27946e-08 0)
(1.06323 -4.49529e-08 0)
(1.06323 4.27854e-08 0)
(1.06323 4.49569e-08 0)
(1.06566 -3.46907e-08 0)
(1.06566 -3.65959e-08 0)
(1.06566 3.46818e-08 0)
(1.06566 3.65998e-08 0)
(1.06803 -2.73228e-08 0)
(1.06803 -2.80541e-08 0)
(1.06803 2.73142e-08 0)
(1.06803 2.8058e-08 0)
(1.07036 -2.06042e-08 0)
(1.07036 -1.95432e-08 0)
(1.07036 2.05958e-08 0)
(1.07036 1.9547e-08 0)
(1.07264 -1.442e-08 0)
(1.07264 -1.12578e-08 0)
(1.07264 1.44118e-08 0)
(1.07264 1.12616e-08 0)
(1.07486 -8.73348e-09 0)
(1.07486 -3.34185e-09 0)
(1.07486 8.72557e-09 0)
(1.07486 3.34553e-09 0)
(1.07704 -3.54841e-09 0)
(1.07704 4.14987e-09 0)
(1.07704 3.54074e-09 0)
(1.07704 -4.14625e-09 0)
(1.07916 1.18399e-09 0)
(1.07916 1.12302e-08 0)
(1.07916 -1.1914e-09 0)
(1.07916 -1.12267e-08 0)
(1.08123 5.52149e-09 0)
(1.08123 1.78447e-08 0)
(1.08123 -5.52865e-09 0)
(1.08123 -1.78412e-08 0)
(1.08324 9.50779e-09 0)
(1.08324 2.37867e-08 0)
(1.08324 -9.5147e-09 0)
(1.08324 -2.37833e-08 0)
(1.0852 1.30169e-08 0)
(1.0852 2.89907e-08 0)
(1.0852 -1.30236e-08 0)
(1.0852 -2.89874e-08 0)
(1.0871 1.60878e-08 0)
(1.0871 3.33016e-08 0)
(1.0871 -1.60942e-08 0)
(1.0871 -3.32983e-08 0)
(1.08894 1.84063e-08 0)
(1.08894 3.67103e-08 0)
(1.08894 -1.84124e-08 0)
(1.08894 -3.67071e-08 0)
(1.09072 2.00743e-08 0)
(1.09072 3.94754e-08 0)
(1.09072 -2.00802e-08 0)
(1.09072 -3.94723e-08 0)
(1.09244 2.12862e-08 0)
(1.09244 4.15225e-08 0)
(1.09244 -2.12919e-08 0)
(1.09244 -4.15195e-08 0)
(1.09409 2.21401e-08 0)
(1.09409 4.30457e-08 0)
(1.09409 -2.21455e-08 0)
(1.09409 -4.30427e-08 0)
(1.09567 2.29499e-08 0)
(1.09567 4.40129e-08 0)
(1.09567 -2.29551e-08 0)
(1.09567 -4.40099e-08 0)
(1.09718 2.36453e-08 0)
(1.09718 4.4351e-08 0)
(1.09718 -2.36502e-08 0)
(1.09718 -4.43482e-08 0)
(1.09862 2.4048e-08 0)
(1.09862 4.39117e-08 0)
(1.09862 -2.40527e-08 0)
(1.09862 -4.39089e-08 0)
(1.09998 2.40982e-08 0)
(1.09998 4.28813e-08 0)
(1.09998 -2.41026e-08 0)
(1.09998 -4.28786e-08 0)
(1.10125 2.37229e-08 0)
(1.10125 4.12584e-08 0)
(1.10126 -2.3727e-08 0)
(1.10125 -4.12558e-08 0)
(1.10245 2.29659e-08 0)
(1.10245 3.93038e-08 0)
(1.10245 -2.29697e-08 0)
(1.10245 -3.93013e-08 0)
(1.10356 2.1971e-08 0)
(1.10356 3.71792e-08 0)
(1.10356 -2.19744e-08 0)
(1.10356 -3.71768e-08 0)
(1.10457 2.06091e-08 0)
(1.10457 3.46901e-08 0)
(1.10457 -2.06123e-08 0)
(1.10457 -3.46878e-08 0)
(1.10549 1.86186e-08 0)
(1.10549 3.17596e-08 0)
(1.10549 -1.86215e-08 0)
(1.10549 -3.17575e-08 0)
(1.10631 1.60027e-08 0)
(1.10631 2.82318e-08 0)
(1.10631 -1.60052e-08 0)
(1.10631 -2.823e-08 0)
(1.10703 1.30239e-08 0)
(1.10703 2.42283e-08 0)
(1.10703 -1.3026e-08 0)
(1.10703 -2.42266e-08 0)
(1.10764 9.99035e-09 0)
(1.10764 1.99012e-08 0)
(1.10764 -9.99211e-09 0)
(1.10764 -1.98998e-08 0)
(1.10814 7.35938e-09 0)
(1.10814 1.54882e-08 0)
(1.10814 -7.36075e-09 0)
(1.10814 -1.5487e-08 0)
(1.10852 5.0646e-09 0)
(1.10852 1.10377e-08 0)
(1.10852 -5.06556e-09 0)
(1.10852 -1.10368e-08 0)
(1.10878 2.99823e-09 0)
(1.10878 6.58408e-09 0)
(1.10878 -2.99884e-09 0)
(1.10878 -6.58358e-09 0)
(1.10891 1.00871e-09 0)
(1.10891 2.19168e-09 0)
(1.10891 -1.00882e-09 0)
(1.10891 -2.19149e-09 0)
)
;

boundaryField
{
    inlet
    {
        type            cyclic;
    }
    outlet
    {
        type            cyclic;
    }
    fixedWalls-bottom
    {
        type            noSlip;
    }
    fixedWalls-top
    {
        type            symmetry;
    }
    frontAndBack
    {
        type            empty;
    }
}


// ************************************************************************* //
