/*--------------------------------*- C++ -*----------------------------------*\
  =========                 |
  \\      /  F ield         | OpenFOAM: The Open Source CFD Toolbox
   \\    /   O peration     | Website:  https://openfoam.org
    \\  /    A nd           | Version:  10
     \\/     M anipulation  |
\*---------------------------------------------------------------------------*/
FoamFile
{
    format      ascii;
    class       volScalarField;
    location    "5000";
    object      nut;
}
// * * * * * * * * * * * * * * * * * * * * * * * * * * * * * * * * * * * * * //

dimensions      [0 2 -1 0 0 0 0];

internalField   nonuniform List<scalar> 
400
(
1.05277e-18
1.05161e-18
1.05189e-18
1.05212e-18
1.84603e-16
1.84401e-16
1.8445e-16
1.84491e-16
3.886e-15
3.88174e-15
3.88278e-15
3.88364e-15
3.00748e-14
3.00418e-14
3.00499e-14
3.00565e-14
1.37578e-13
1.37427e-13
1.37464e-13
1.37495e-13
4.59272e-13
4.58767e-13
4.58891e-13
4.58993e-13
1.24593e-12
1.24455e-12
1.24489e-12
1.24517e-12
2.9207e-12
2.91748e-12
2.91827e-12
2.91893e-12
6.14671e-12
6.1399e-12
6.14157e-12
6.14299e-12
1.19136e-11
1.19004e-11
1.19036e-11
1.19065e-11
2.16567e-11
2.16325e-11
2.16384e-11
2.16437e-11
3.74326e-11
3.73904e-11
3.74007e-11
3.74101e-11
6.21923e-11
6.21209e-11
6.21382e-11
6.21544e-11
1.00209e-10
1.0009e-10
1.00118e-10
1.00145e-10
1.57744e-10
1.57549e-10
1.57594e-10
1.57638e-10
2.44082e-10
2.43764e-10
2.43834e-10
2.43904e-10
3.73121e-10
3.72601e-10
3.72709e-10
3.7282e-10
5.65836e-10
5.64976e-10
5.65142e-10
5.65318e-10
8.54086e-10
8.52654e-10
8.52906e-10
8.53185e-10
1.28656e-09
1.28416e-09
1.28454e-09
1.28499e-09
1.93811e-09
1.93405e-09
1.93463e-09
1.93535e-09
2.92446e-09
2.91755e-09
2.91842e-09
2.91962e-09
4.42544e-09
4.41364e-09
4.41494e-09
4.41695e-09
6.72189e-09
6.70162e-09
6.70349e-09
6.707e-09
1.02538e-08
1.02189e-08
1.02218e-08
1.02278e-08
1.57113e-08
1.56513e-08
1.56557e-08
1.56659e-08
2.41731e-08
2.40711e-08
2.4077e-08
2.40944e-08
3.73067e-08
3.71365e-08
3.71419e-08
3.71715e-08
5.57123e-08
5.56758e-08
5.56949e-08
5.56978e-08
6.12995e-08
6.12623e-08
6.12841e-08
6.12864e-08
6.69904e-08
6.69527e-08
6.69773e-08
6.69791e-08
7.27586e-08
7.27206e-08
7.27483e-08
7.27495e-08
7.85794e-08
7.85413e-08
7.85721e-08
7.85728e-08
8.44291e-08
8.43909e-08
8.4425e-08
8.44253e-08
9.02852e-08
9.02472e-08
9.02846e-08
9.02845e-08
9.6126e-08
9.60881e-08
9.61291e-08
9.61282e-08
1.01971e-07
1.01932e-07
1.01976e-07
1.01975e-07
1.0785e-07
1.0781e-07
1.07858e-07
1.07856e-07
1.13788e-07
1.13746e-07
1.13796e-07
1.13795e-07
1.19801e-07
1.19757e-07
1.1981e-07
1.19808e-07
1.25902e-07
1.25855e-07
1.25911e-07
1.25909e-07
1.32099e-07
1.32049e-07
1.32109e-07
1.32107e-07
1.384e-07
1.38347e-07
1.3841e-07
1.38408e-07
1.44809e-07
1.44752e-07
1.44819e-07
1.44817e-07
1.51329e-07
1.51269e-07
1.5134e-07
1.51338e-07
1.57963e-07
1.57899e-07
1.57974e-07
1.57972e-07
1.64713e-07
1.64644e-07
1.64723e-07
1.64721e-07
1.71578e-07
1.71505e-07
1.71589e-07
1.71587e-07
1.7856e-07
1.78483e-07
1.78572e-07
1.7857e-07
1.8566e-07
1.85577e-07
1.85672e-07
1.85669e-07
1.92876e-07
1.92788e-07
1.92888e-07
1.92886e-07
2.00208e-07
2.00115e-07
2.00221e-07
2.00219e-07
2.07656e-07
2.07557e-07
2.0767e-07
2.07668e-07
2.15219e-07
2.15113e-07
2.15233e-07
2.15231e-07
2.22894e-07
2.22781e-07
2.22907e-07
2.22907e-07
2.30679e-07
2.30559e-07
2.30692e-07
2.30695e-07
2.38573e-07
2.38445e-07
2.38585e-07
2.38591e-07
2.46572e-07
2.46435e-07
2.46584e-07
2.46592e-07
2.54671e-07
2.54525e-07
2.54684e-07
2.54694e-07
2.62868e-07
2.62711e-07
2.62882e-07
2.62893e-07
2.71155e-07
2.70988e-07
2.71171e-07
2.71182e-07
2.79528e-07
2.7935e-07
2.79546e-07
2.79556e-07
2.87978e-07
2.87788e-07
2.88001e-07
2.88007e-07
2.96497e-07
2.96295e-07
2.96521e-07
2.96528e-07
3.05075e-07
3.04861e-07
3.05099e-07
3.05109e-07
3.13701e-07
3.13475e-07
3.13723e-07
3.13738e-07
3.22362e-07
3.22124e-07
3.2238e-07
3.22403e-07
3.31044e-07
3.30794e-07
3.31057e-07
3.31088e-07
3.39731e-07
3.39469e-07
3.39737e-07
3.39778e-07
3.48404e-07
3.48133e-07
3.48404e-07
3.48456e-07
3.57046e-07
3.56765e-07
3.57038e-07
3.57101e-07
3.65635e-07
3.65347e-07
3.65618e-07
3.65693e-07
3.74148e-07
3.73856e-07
3.74123e-07
3.74209e-07
3.82563e-07
3.8227e-07
3.82528e-07
3.82626e-07
3.90853e-07
3.90563e-07
3.90808e-07
3.90917e-07
3.98992e-07
3.98709e-07
3.98934e-07
3.99055e-07
4.06945e-07
4.06677e-07
4.06873e-07
4.07006e-07
4.14671e-07
4.14426e-07
4.14579e-07
4.14726e-07
4.22111e-07
4.21896e-07
4.2199e-07
4.22155e-07
4.29171e-07
4.28997e-07
4.29005e-07
4.29197e-07
4.35701e-07
4.35577e-07
4.3548e-07
4.35702e-07
4.41501e-07
4.41411e-07
4.41229e-07
4.41485e-07
4.46553e-07
4.46484e-07
4.46233e-07
4.4653e-07
4.50863e-07
4.50807e-07
4.50493e-07
4.5084e-07
4.54505e-07
4.54455e-07
4.54081e-07
4.54467e-07
4.57613e-07
4.57563e-07
4.5713e-07
4.57545e-07
4.604e-07
4.60351e-07
4.59856e-07
4.60293e-07
3.60834e-07
3.58611e-07
3.53138e-07
3.58733e-07
2.58683e-07
2.58124e-07
2.54414e-07
2.58046e-07
1.90533e-07
1.89972e-07
1.875e-07
1.89784e-07
1.43555e-07
1.43281e-07
1.41493e-07
1.42963e-07
1.10912e-07
1.10797e-07
1.09447e-07
1.10428e-07
8.79797e-08
8.79441e-08
8.6883e-08
8.75697e-08
7.17432e-08
7.17458e-08
7.08804e-08
7.13899e-08
6.02266e-08
6.02456e-08
5.95166e-08
5.99216e-08
5.21211e-08
5.2145e-08
5.15128e-08
5.1859e-08
4.65539e-08
4.65702e-08
4.60113e-08
4.63273e-08
4.29548e-08
4.29632e-08
4.24557e-08
4.27608e-08
4.13022e-08
4.13004e-08
4.08139e-08
4.11241e-08
4.11698e-08
4.11568e-08
4.06687e-08
4.09927e-08
)
;

boundaryField
{
    inlet
    {
        type            cyclic;
    }
    outlet
    {
        type            cyclic;
    }
    fixedWalls-bottom
    {
        type            nutkWallFunction;
        Cmu             0.09;
        kappa           0.41;
        E               9.8;
        value           uniform 0;
    }
    fixedWalls-top
    {
        type            symmetry;
    }
    frontAndBack
    {
        type            empty;
    }
}


// ************************************************************************* //
