/*--------------------------------*- C++ -*----------------------------------*\
  =========                 |
  \\      /  F ield         | OpenFOAM: The Open Source CFD Toolbox
   \\    /   O peration     | Website:  https://openfoam.org
    \\  /    A nd           | Version:  10
     \\/     M anipulation  |
\*---------------------------------------------------------------------------*/
FoamFile
{
    format      ascii;
    class       volScalarField;
    location    "5000";
    object      omega;
}
// * * * * * * * * * * * * * * * * * * * * * * * * * * * * * * * * * * * * * //

dimensions      [0 0 -1 0 0 0 0];

internalField   nonuniform List<scalar> 
400
(
300658
300658
300658
300658
51432.7
51432.6
51432.6
51432.6
17301.3
17301.3
17301.3
17301.3
8126.58
8126.58
8126.58
8126.58
4596.03
4596.03
4596.03
4596.02
2915.29
2915.3
2915.3
2915.29
1996.82
1996.83
1996.83
1996.82
1444.42
1444.43
1444.43
1444.42
1087.9
1087.91
1087.9
1087.89
844.804
844.815
844.813
844.793
671.401
671.415
671.412
671.39
542.786
542.804
542.801
542.777
444.016
444.04
444.038
444.012
365.787
365.82
365.818
365.791
302.173
302.217
302.214
302.187
249.359
249.413
249.411
249.385
204.878
204.944
204.941
204.917
167.13
167.207
167.205
167.181
135.057
135.143
135.141
135.118
107.921
108.013
108.011
107.99
85.1622
85.2561
85.2552
85.2355
66.303
66.3958
66.3954
66.3772
50.9
50.9887
50.9889
50.972
38.5208
38.6029
38.6039
38.588
28.7407
28.8145
28.8152
28.8012
21.1497
21.2137
21.2145
21.2026
15.3639
15.4173
15.4185
15.4086
11.0344
11.0772
11.0792
11.0711
7.85478
7.88762
7.8906
7.88406
5.54917
5.57381
5.57746
5.57217
3.89224
3.9104
3.91435
3.90999
2.71543
2.72864
2.73243
2.72882
1.88966
1.89919
1.90254
1.89961
1.31656
1.32344
1.3262
1.32391
0.922576
0.92757
0.929729
0.928016
0.653778
0.657447
0.659006
0.657804
0.472569
0.475324
0.476322
0.475552
0.35185
0.353983
0.354472
0.35406
0.272402
0.274103
0.274146
0.274033
0.220794
0.222099
0.221998
0.221966
0.187762
0.188768
0.188606
0.188596
0.167009
0.167796
0.167622
0.167599
0.154305
0.154938
0.154741
0.154733
0.14684
0.147369
0.147154
0.147165
0.142766
0.14323
0.143021
0.143026
0.140885
0.141312
0.141118
0.14111
0.140423
0.140833
0.140645
0.140639
0.140887
0.141295
0.141116
0.141113
0.141969
0.142383
0.142217
0.142219
0.143475
0.143899
0.143751
0.143761
0.145289
0.145723
0.145599
0.145621
0.147339
0.14778
0.147687
0.147728
0.149585
0.150023
0.149973
0.150043
0.152006
0.152425
0.15243
0.152545
0.154591
0.154964
0.155042
0.155226
0.157338
0.157668
0.1578
0.158083
0.160247
0.160533
0.160724
0.161112
0.163322
0.163564
0.163813
0.164316
0.166565
0.166766
0.167072
0.167701
0.169979
0.170146
0.170504
0.171268
0.173567
0.173712
0.174108
0.175019
0.177325
0.177456
0.177886
0.178953
0.181248
0.181368
0.181828
0.183062
0.185322
0.185432
0.185921
0.187334
0.189527
0.189627
0.190142
0.191747
0.19383
0.19392
0.194459
0.196268
0.198186
0.198266
0.198826
0.200851
0.202538
0.202606
0.203184
0.205435
0.206812
0.206866
0.207459
0.209943
0.210922
0.210962
0.211569
0.21429
0.21478
0.214804
0.215428
0.218387
0.21831
0.218315
0.218969
0.222158
0.221482
0.221464
0.222177
0.225582
0.224369
0.224324
0.225146
0.22874
0.227249
0.22718
0.228173
0.231914
0.230786
0.230727
0.231888
0.235732
0.236161
0.236128
0.237561
0.241383
0.24548
0.245519
0.247416
0.25095
0.262088
0.262278
0.264955
0.267713
0.290765
0.291161
0.295426
0.296258
0.335997
0.336285
0.343586
0.341145
0.385113
0.385491
0.39548
0.39002
0.475649
0.477359
0.491068
0.479803
0.702474
0.70773
0.727276
0.705327
1.02163
1.03046
1.0548
1.02819
1.43987
1.45791
1.48372
1.45456
1.97819
1.99705
2.02856
1.99445
2.64502
2.66115
2.69912
2.65963
3.44375
3.45093
3.4966
3.45073
4.34723
4.3598
4.41089
4.36187
5.34946
5.35949
5.41874
5.36765
6.40911
6.41561
6.48383
6.43116
7.4783
7.48113
7.55889
7.50459
8.5026
8.50231
8.58961
8.53294
9.42664
9.42415
9.52018
9.45987
10.2012
10.1977
10.3008
10.2353
10.7906
10.7887
10.8954
10.8239
11.1748
11.175
11.2826
11.2046
11.2575
11.2608
11.3683
11.2847
11.1086
11.115
11.2217
11.1351
)
;

boundaryField
{
    inlet
    {
        type            cyclic;
    }
    outlet
    {
        type            cyclic;
    }
    fixedWalls-bottom
    {
        beta1           0.075;
        blended         0;
        type            omegaWallFunction;
        value           uniform 300658;
    }
    fixedWalls-top
    {
        type            symmetry;
    }
    frontAndBack
    {
        type            empty;
    }
}


// ************************************************************************* //
