/*--------------------------------*- C++ -*----------------------------------*\
  =========                 |
  \\      /  F ield         | OpenFOAM: The Open Source CFD Toolbox
   \\    /   O peration     | Website:  https://openfoam.org
    \\  /    A nd           | Version:  10
     \\/     M anipulation  |
\*---------------------------------------------------------------------------*/
FoamFile
{
    format      ascii;
    class       volScalarField;
    location    "5000";
    object      p;
}
// * * * * * * * * * * * * * * * * * * * * * * * * * * * * * * * * * * * * * //

dimensions      [0 2 -2 0 0 0 0];

internalField   nonuniform List<scalar> 
400
(
-3.57753e-14
-1.5474e-10
-4.00389e-10
-2.46146e-10
-3.31365e-13
-1.54524e-10
-4.00197e-10
-2.46362e-10
-5.6655e-13
-1.54268e-10
-3.99986e-10
-2.46618e-10
-7.45503e-13
-1.54015e-10
-3.99802e-10
-2.46871e-10
-9.06066e-13
-1.53763e-10
-3.99641e-10
-2.47123e-10
-1.04504e-12
-1.53508e-10
-3.995e-10
-2.47378e-10
-1.16816e-12
-1.5325e-10
-3.99379e-10
-2.47636e-10
-1.26546e-12
-1.52989e-10
-3.99281e-10
-2.47896e-10
-1.343e-12
-1.52729e-10
-3.99206e-10
-2.48157e-10
-1.39277e-12
-1.52468e-10
-3.99155e-10
-2.48417e-10
-1.4207e-12
-1.52209e-10
-3.9913e-10
-2.48676e-10
-1.41959e-12
-1.51953e-10
-3.9913e-10
-2.48932e-10
-1.39514e-12
-1.51701e-10
-3.99156e-10
-2.49184e-10
-1.34094e-12
-1.51454e-10
-3.9921e-10
-2.49431e-10
-1.26279e-12
-1.51215e-10
-3.9929e-10
-2.4967e-10
-1.15511e-12
-1.50985e-10
-3.99397e-10
-2.499e-10
-1.02415e-12
-1.50767e-10
-3.99529e-10
-2.50118e-10
-8.65508e-13
-1.50565e-10
-3.99687e-10
-2.50321e-10
-6.86602e-13
-1.50384e-10
-3.99867e-10
-2.50501e-10
-4.85197e-13
-1.50235e-10
-4.00068e-10
-2.5065e-10
-2.71659e-13
-1.50133e-10
-4.00283e-10
-2.50752e-10
-4.86226e-14
-1.50106e-10
-4.00505e-10
-2.50779e-10
1.66298e-13
-1.50199e-10
-4.00721e-10
-2.50686e-10
3.57762e-13
-1.5048e-10
-4.00912e-10
-2.50405e-10
4.81355e-13
-1.51091e-10
-4.01037e-10
-2.49793e-10
4.65486e-13
-1.52398e-10
-4.0102e-10
-2.48486e-10
1.81814e-13
-1.55141e-10
-4.00738e-10
-2.45743e-10
-4.1884e-13
-1.59623e-10
-4.00136e-10
-2.41261e-10
-9.88885e-13
-1.62765e-10
-3.99567e-10
-2.38118e-10
-1.35306e-12
-1.63316e-10
-3.99203e-10
-2.37568e-10
-1.74499e-12
-1.63479e-10
-3.98812e-10
-2.37405e-10
-2.21803e-12
-1.63718e-10
-3.98338e-10
-2.37166e-10
-2.77676e-12
-1.63924e-10
-3.9778e-10
-2.36959e-10
-3.4153e-12
-1.64014e-10
-3.97141e-10
-2.36868e-10
-4.14683e-12
-1.63972e-10
-3.96411e-10
-2.36911e-10
-4.97007e-12
-1.63792e-10
-3.95587e-10
-2.3709e-10
-5.89111e-12
-1.63494e-10
-3.94667e-10
-2.37388e-10
-6.90031e-12
-1.63111e-10
-3.93657e-10
-2.37771e-10
-8.0052e-12
-1.62671e-10
-3.92553e-10
-2.38211e-10
-9.20099e-12
-1.62192e-10
-3.91357e-10
-2.3869e-10
-1.05005e-11
-1.61683e-10
-3.90058e-10
-2.39198e-10
-1.19015e-11
-1.61149e-10
-3.88657e-10
-2.39732e-10
-1.34197e-11
-1.60595e-10
-3.8714e-10
-2.40286e-10
-1.50536e-11
-1.60019e-10
-3.85506e-10
-2.40862e-10
-1.68216e-11
-1.59422e-10
-3.83739e-10
-2.41458e-10
-1.87232e-11
-1.58798e-10
-3.81837e-10
-2.42082e-10
-2.07795e-11
-1.58148e-10
-3.79781e-10
-2.42732e-10
-2.29909e-11
-1.57462e-10
-3.7757e-10
-2.43417e-10
-2.53817e-11
-1.56741e-10
-3.7518e-10
-2.44138e-10
-2.79542e-11
-1.55974e-10
-3.72607e-10
-2.44905e-10
-3.07351e-11
-1.55158e-10
-3.69827e-10
-2.45721e-10
-3.37269e-11
-1.54282e-10
-3.66835e-10
-2.46596e-10
-3.69593e-11
-1.53343e-10
-3.63604e-10
-2.47535e-10
-4.04363e-11
-1.52326e-10
-3.60127e-10
-2.48552e-10
-4.41925e-11
-1.51226e-10
-3.56372e-10
-2.49651e-10
-4.82391e-11
-1.50027e-10
-3.52325e-10
-2.5085e-10
-5.2623e-11
-1.48722e-10
-3.47942e-10
-2.52154e-10
-5.736e-11
-1.47299e-10
-3.43205e-10
-2.53577e-10
-6.2491e-11
-1.45747e-10
-3.38075e-10
-2.55129e-10
-6.80216e-11
-1.44042e-10
-3.32544e-10
-2.56834e-10
-7.39869e-11
-1.42185e-10
-3.2658e-10
-2.5869e-10
-8.03905e-11
-1.40171e-10
-3.20176e-10
-2.60704e-10
-8.72646e-11
-1.38001e-10
-3.13303e-10
-2.62873e-10
-9.46092e-11
-1.35689e-10
-3.05958e-10
-2.65185e-10
-1.02449e-10
-1.33285e-10
-2.98119e-10
-2.67588e-10
-1.10771e-10
-1.30826e-10
-2.89797e-10
-2.70047e-10
-1.19582e-10
-1.28355e-10
-2.80987e-10
-2.72518e-10
-1.28849e-10
-1.25896e-10
-2.7172e-10
-2.74976e-10
-1.38553e-10
-1.23484e-10
-2.62018e-10
-2.77388e-10
-1.48631e-10
-1.21134e-10
-2.51939e-10
-2.79737e-10
-1.59032e-10
-1.1887e-10
-2.41539e-10
-2.82001e-10
-1.69658e-10
-1.16695e-10
-2.30914e-10
-2.84175e-10
-1.80411e-10
-1.14624e-10
-2.20162e-10
-2.86246e-10
-1.91145e-10
-1.12653e-10
-2.09428e-10
-2.88216e-10
-2.01703e-10
-1.10802e-10
-1.98871e-10
-2.90067e-10
-2.11871e-10
-1.09082e-10
-1.88704e-10
-2.91786e-10
-2.2141e-10
-1.0755e-10
-1.79165e-10
-2.93318e-10
-2.30021e-10
-1.06287e-10
-1.70554e-10
-2.94581e-10
-2.37354e-10
-1.05498e-10
-1.63222e-10
-2.95369e-10
-2.42964e-10
-1.05512e-10
-1.57613e-10
-2.95355e-10
-2.46479e-10
-1.06664e-10
-1.54098e-10
-2.94202e-10
-2.48154e-10
-1.09042e-10
-1.52423e-10
-2.91824e-10
-2.48709e-10
-1.12681e-10
-1.51868e-10
-2.88184e-10
-2.486e-10
-1.1728e-10
-1.51978e-10
-2.83586e-10
-2.47887e-10
-1.2084e-10
-1.52692e-10
-2.80025e-10
-2.46513e-10
-1.20725e-10
-1.54066e-10
-2.80139e-10
-2.44851e-10
-1.30632e-10
-1.55728e-10
-2.70232e-10
-2.4411e-10
-2.12889e-10
-1.56469e-10
-1.87975e-10
-2.43046e-10
-3.29191e-10
-1.57533e-10
-7.16726e-11
-2.39726e-10
-3.99251e-10
-1.60852e-10
-1.61152e-12
-2.34406e-10
-4.37086e-10
-1.66173e-10
3.62237e-11
-2.28051e-10
-4.5904e-10
-1.72527e-10
5.81771e-11
-2.21887e-10
-4.73061e-10
-1.78692e-10
7.21985e-11
-2.16543e-10
-4.82317e-10
-1.84036e-10
8.14546e-11
-2.12206e-10
-4.88458e-10
-1.88373e-10
8.75966e-11
-2.08877e-10
-4.92535e-10
-1.91702e-10
9.16731e-11
-2.06484e-10
-4.95236e-10
-1.94095e-10
9.4375e-11
-2.04904e-10
-4.96982e-10
-1.95675e-10
9.61212e-11
-2.03966e-10
-4.98057e-10
-1.96613e-10
9.71959e-11
-2.03488e-10
-4.98691e-10
-1.9709e-10
9.78297e-11
)
;

boundaryField
{
    inlet
    {
        type            cyclic;
    }
    outlet
    {
        type            cyclic;
    }
    fixedWalls-bottom
    {
        type            zeroGradient;
    }
    fixedWalls-top
    {
        type            symmetry;
    }
    frontAndBack
    {
        type            empty;
    }
}


// ************************************************************************* //
