/*--------------------------------*- C++ -*----------------------------------*\
  =========                 |
  \\      /  F ield         | OpenFOAM: The Open Source CFD Toolbox
   \\    /   O peration     | Website:  https://openfoam.org
    \\  /    A nd           | Version:  10
     \\/     M anipulation  |
\*---------------------------------------------------------------------------*/
FoamFile
{
    format      ascii;
    class       surfaceScalarField;
    location    "5000";
    object      phi;
}
// * * * * * * * * * * * * * * * * * * * * * * * * * * * * * * * * * * * * * //

dimensions      [0 3 -1 0 0 0 0];

internalField   nonuniform List<scalar> 
696
(
6.38846e-05
-7.20875e-15
6.38846e-05
2.64676e-14
6.38846e-05
2.73234e-14
-2.65058e-14
0.000194668
-8.39562e-14
0.000194668
1.08551e-13
0.000194668
1.04942e-13
-1.08647e-13
0.000330358
-2.10027e-13
0.000330358
2.49313e-13
0.000330358
2.30266e-13
-2.49463e-13
0.000471081
-3.79409e-13
0.000471081
4.51651e-13
0.000471081
4.00279e-13
-4.51859e-13
0.000616971
-5.91735e-13
0.000616971
7.18356e-13
0.000616971
6.11879e-13
-7.18614e-13
0.00076816
-8.40332e-13
0.00076816
1.05214e-12
0.00076816
8.60935e-13
-1.05246e-12
0.000924786
-1.12342e-12
0.000924786
1.45557e-12
0.000924786
1.14334e-12
-1.45593e-12
0.00108699
-1.43347e-12
0.00108699
1.93116e-12
0.00108699
1.45375e-12
-1.93158e-12
0.0012549
-1.76735e-12
0.0012549
2.48122e-12
0.0012549
1.78699e-12
-2.48168e-12
0.00142867
-2.11652e-12
0.00142867
3.10802e-12
0.00142867
2.13645e-12
-3.10855e-12
0.00160845
-2.47652e-12
0.00160845
3.81355e-12
0.00160845
2.49586e-12
-3.81413e-12
0.00179438
-2.83766e-12
0.00179438
4.59986e-12
0.00179438
2.85725e-12
-4.60049e-12
0.00198661
-3.19415e-12
0.00198661
5.4685e-12
0.00198661
3.21317e-12
-5.46918e-12
0.00218529
-3.53505e-12
0.00218529
6.4212e-12
0.00218529
3.5543e-12
-6.42194e-12
0.00239058
-3.85332e-12
0.00239058
7.45896e-12
0.00239058
3.87204e-12
-7.45976e-12
0.00260264
-4.13669e-12
0.00260264
8.58304e-12
0.00260264
4.15562e-12
-8.5839e-12
0.00282162
-4.37689e-12
0.00282162
9.79353e-12
0.00282162
4.3953e-12
-9.79443e-12
0.00304768
-4.56042e-12
0.00304768
1.10906e-11
0.00304768
4.57904e-12
-1.10916e-11
0.00328099
-4.67804e-12
0.00328099
1.24727e-11
0.00328099
4.69616e-12
-1.24737e-11
0.00352171
-4.71532e-12
0.00352171
1.39371e-11
0.00352171
4.73363e-12
-1.39382e-11
0.00377001
-4.66271e-12
0.00377001
1.54777e-11
0.00377001
4.68054e-12
-1.54789e-11
0.00402605
-4.50609e-12
0.00402605
1.70842e-11
0.00402605
4.52411e-12
-1.70854e-11
0.00429001
-4.23771e-12
0.00429001
1.87366e-11
0.00429001
4.25526e-12
-1.87378e-11
0.00456205
-3.84751e-12
0.00456205
2.04006e-11
0.00456205
3.86524e-12
-2.04019e-11
0.00484236
-3.33656e-12
0.00484236
2.20142e-11
0.00484236
3.35384e-12
-2.20156e-11
0.00513109
-2.71051e-12
0.00513109
2.34699e-11
0.00513109
2.72795e-12
-2.34713e-11
0.00542844
-1.99567e-12
0.00542844
2.45785e-11
0.00542844
2.01267e-12
-2.458e-11
0.00573457
-1.23241e-12
0.00573457
2.50128e-11
0.00573457
1.24956e-12
-2.50143e-11
0.00604966
-4.07964e-13
0.00604966
2.49745e-11
0.00604966
4.24677e-13
-2.49761e-11
0.0063739
5.25084e-13
0.0063739
2.48966e-11
0.0063739
-5.08225e-13
-2.48982e-11
0.00670745
1.56432e-12
0.00670745
2.47913e-11
0.00670745
-1.54789e-12
-2.4793e-11
0.00705049
2.71175e-12
0.00705049
2.46727e-11
0.00705049
-2.69517e-12
-2.46745e-11
0.00740322
3.96318e-12
0.00740322
2.45589e-11
0.00740322
-3.94703e-12
-2.45607e-11
0.00776579
5.3184e-12
0.00776579
2.44673e-11
0.00776579
-5.30212e-12
-2.44691e-11
0.0081384
6.77164e-12
0.0081384
2.44198e-11
0.0081384
-6.75576e-12
-2.44216e-11
0.00852123
8.32099e-12
0.00852123
2.44367e-11
0.00852123
-8.30499e-12
-2.44386e-11
0.00891444
9.96058e-12
0.00891444
2.45398e-11
0.00891444
-9.94499e-12
-2.45417e-11
0.00931821
1.16909e-11
0.00931821
2.47392e-11
0.00931821
-1.16752e-11
-2.47413e-11
0.00973272
1.35087e-11
0.00973272
2.50452e-11
0.00973272
-1.34934e-11
-2.50473e-11
0.0101581
1.54156e-11
0.0101581
2.5458e-11
0.0101581
-1.54002e-11
-2.54601e-11
0.0105946
1.74101e-11
0.0105946
2.59811e-11
0.0105946
-1.73951e-11
-2.59833e-11
0.0110424
1.94944e-11
0.0110424
2.66091e-11
0.0110424
-1.94793e-11
-2.66113e-11
0.0115016
2.16678e-11
0.0115016
2.73411e-11
0.0115016
-2.16531e-11
-2.73433e-11
0.0119723
2.39333e-11
0.0119723
2.81686e-11
0.0119723
-2.39185e-11
-2.81709e-11
0.0124548
2.62906e-11
0.0124548
2.90876e-11
0.0124548
-2.62762e-11
-2.90899e-11
0.0129491
2.87432e-11
0.0129491
3.00873e-11
0.0129491
-2.87287e-11
-3.00897e-11
0.0134555
3.12902e-11
0.0134555
3.11606e-11
0.0134555
-3.12761e-11
-3.1163e-11
0.0139741
3.39352e-11
0.0139741
3.22958e-11
0.0139741
-3.3921e-11
-3.22983e-11
0.0145049
3.66756e-11
0.0145049
3.34825e-11
0.0145049
-3.66618e-11
-3.3485e-11
0.0150482
3.95138e-11
0.0150482
3.47079e-11
0.0150482
-3.95e-11
-3.47104e-11
0.0156041
4.24436e-11
0.0156041
3.59573e-11
0.0156041
-4.24302e-11
-3.59599e-11
0.0161727
4.54653e-11
0.0161727
3.72179e-11
0.0161727
-4.54518e-11
-3.72206e-11
0.016754
4.85672e-11
0.016754
3.84699e-11
0.016754
-4.85541e-11
-3.84725e-11
0.0173482
5.17466e-11
0.0173482
3.97003e-11
0.0173482
-5.17334e-11
-3.9703e-11
0.0179554
5.49851e-11
0.0179554
4.08806e-11
0.0179554
-5.49723e-11
-4.08833e-11
0.0185756
5.82733e-11
0.0185756
4.19991e-11
0.0185756
-5.82604e-11
-4.20019e-11
0.0192089
6.15782e-11
0.0192089
4.30278e-11
0.0192089
-6.15658e-11
-4.30305e-11
0.0198554
6.48772e-11
0.0198554
4.39489e-11
0.0198554
-6.48647e-11
-4.39517e-11
0.020515
6.81238e-11
0.020515
4.47325e-11
0.020515
-6.81118e-11
-4.47353e-11
0.0211879
7.12846e-11
0.0211879
4.53698e-11
0.0211879
-7.12725e-11
-4.53726e-11
0.021874
7.4298e-11
0.021874
4.58325e-11
0.021874
-7.42863e-11
-4.58354e-11
0.0225732
7.71151e-11
0.0225732
4.61125e-11
0.0225732
-7.71034e-11
-4.61154e-11
0.0232856
7.96558e-11
0.0232856
4.61799e-11
0.0232856
-7.96445e-11
-4.61827e-11
0.0240111
8.18515e-11
0.0240111
4.60211e-11
0.0240111
-8.18402e-11
-4.60241e-11
0.0247496
8.36015e-11
0.0247496
4.5601e-11
0.0247496
-8.35906e-11
-4.56039e-11
0.025501
8.48148e-11
0.025501
4.4893e-11
0.025501
-8.4804e-11
-4.48959e-11
0.0262652
8.53681e-11
0.0262652
4.38516e-11
0.0262652
-8.53576e-11
-4.38544e-11
0.0270421
8.5146e-11
0.0270421
4.24458e-11
0.0270421
-8.51355e-11
-4.24487e-11
0.0278314
8.40033e-11
0.0278314
4.06379e-11
0.0278314
-8.39933e-11
-4.06407e-11
0.028633
8.1803e-11
0.028633
3.84158e-11
0.028633
-8.17931e-11
-3.84188e-11
0.0294466
7.83833e-11
0.0294466
3.57748e-11
0.0294466
-7.83737e-11
-3.57776e-11
0.0302719
7.35911e-11
0.0302719
3.27534e-11
0.0302719
-7.35816e-11
-3.27563e-11
0.0311086
6.72607e-11
0.0311086
2.94151e-11
0.0311086
-6.72517e-11
-2.9418e-11
0.0319563
5.92436e-11
0.0319563
2.58886e-11
0.0319563
-5.92347e-11
-2.58915e-11
0.0328147
4.94008e-11
0.0328147
2.23461e-11
0.0328147
-4.93923e-11
-2.23489e-11
0.0336834
3.76327e-11
0.0336834
1.90474e-11
0.0336834
-3.76243e-11
-1.90502e-11
0.0345617
2.38933e-11
0.0345617
1.63041e-11
0.0345617
-2.38854e-11
-1.63068e-11
0.0354493
8.21967e-12
0.0354493
1.45244e-11
0.0354493
-8.2118e-12
-1.45271e-11
0.0363455
-9.22773e-12
0.0363455
1.41456e-11
0.0363455
9.23514e-12
-1.41482e-11
0.0372496
-2.81389e-11
0.0372496
1.56505e-11
0.0372496
2.81462e-11
-1.56532e-11
0.038161
-4.79969e-11
0.038161
1.95097e-11
0.038161
4.80037e-11
-1.95122e-11
0.0390789
-6.82932e-11
0.0390789
2.63344e-11
0.0390789
6.82998e-11
-2.63369e-11
0.0400024
-8.86343e-11
0.0400024
3.68669e-11
0.0400024
8.86405e-11
-3.68694e-11
0.0409307
-1.0858e-10
0.0409307
5.2019e-11
0.0409307
1.08586e-10
-5.20214e-11
0.0418628
-1.27483e-10
0.0418628
7.27999e-11
0.0418628
1.27488e-10
-7.28022e-11
0.0427976
-1.44363e-10
0.0427976
1.0038e-10
0.0427976
1.44369e-10
-1.00382e-10
0.043734
-1.57747e-10
0.043734
1.36011e-10
0.043734
1.57752e-10
-1.36013e-10
0.0446707
-1.66483e-10
0.0446707
1.52927e-10
0.0446707
1.66487e-10
-1.52929e-10
0.0456066
-1.69579e-10
0.0456066
1.38844e-10
0.0456066
1.69583e-10
-1.38846e-10
0.04654
-1.66551e-10
0.04654
1.12856e-10
0.04654
1.66555e-10
-1.12857e-10
0.0474696
-1.57903e-10
0.0474696
8.34834e-11
0.0474696
1.57907e-10
-8.34851e-11
0.0483937
-1.44635e-10
0.0483937
5.60223e-11
0.0483937
1.44638e-10
-5.60239e-11
0.0493105
-1.28104e-10
0.0493105
3.30305e-11
0.0493105
1.28106e-10
-3.30319e-11
0.0502183
-1.09653e-10
0.0502183
1.54708e-11
0.0502183
1.09656e-10
-1.54721e-11
0.051115
-9.04103e-11
0.051115
3.36872e-12
0.051115
9.0412e-11
-3.36984e-12
0.0519985
-7.11994e-11
0.0519985
-3.75488e-12
0.0519985
7.12008e-11
3.75397e-12
0.0528665
-5.25199e-11
0.0528665
-6.6794e-12
0.0528665
5.25209e-11
6.6787e-12
0.0537167
-3.45506e-11
0.0537167
-6.33059e-12
0.0537167
3.45511e-11
6.33013e-12
0.0545464
-1.71659e-11
0.0545464
-3.72324e-12
0.0545464
1.71661e-11
3.72306e-12
0.055353
0.055353
0.055353
)
;

boundaryField
{
    inlet
    {
        type            cyclic;
        value           nonuniform List<scalar> 
100
(
-0.055353
-0.0545464
-0.0537167
-0.0528665
-0.0519985
-0.051115
-0.0502183
-0.0493105
-0.0483937
-0.0474696
-0.04654
-0.0456066
-0.0446707
-0.043734
-0.0427976
-0.0418628
-0.0409307
-0.0400024
-0.0390789
-0.038161
-0.0372496
-0.0363455
-0.0354493
-0.0345617
-0.0336834
-0.0328147
-0.0319563
-0.0311086
-0.0302719
-0.0294466
-0.028633
-0.0278314
-0.0270421
-0.0262652
-0.025501
-0.0247496
-0.0240111
-0.0232856
-0.0225732
-0.021874
-0.0211879
-0.020515
-0.0198554
-0.0192089
-0.0185756
-0.0179554
-0.0173482
-0.016754
-0.0161727
-0.0156041
-0.0150482
-0.0145049
-0.0139741
-0.0134555
-0.0129491
-0.0124548
-0.0119723
-0.0115016
-0.0110424
-0.0105946
-0.0101581
-0.00973272
-0.00931821
-0.00891444
-0.00852123
-0.0081384
-0.00776579
-0.00740322
-0.00705049
-0.00670745
-0.0063739
-0.00604966
-0.00573457
-0.00542844
-0.00513109
-0.00484236
-0.00456205
-0.00429001
-0.00402605
-0.00377001
-0.00352171
-0.00328099
-0.00304768
-0.00282162
-0.00260264
-0.00239058
-0.00218529
-0.00198661
-0.00179438
-0.00160845
-0.00142867
-0.0012549
-0.00108699
-0.000924786
-0.00076816
-0.000616971
-0.000471081
-0.000330358
-0.000194668
-6.38846e-05
)
;
    }
    outlet
    {
        type            cyclic;
        value           nonuniform List<scalar> 
100
(
0.055353
0.0545464
0.0537167
0.0528665
0.0519985
0.051115
0.0502183
0.0493105
0.0483937
0.0474696
0.04654
0.0456066
0.0446707
0.043734
0.0427976
0.0418628
0.0409307
0.0400024
0.0390789
0.038161
0.0372496
0.0363455
0.0354493
0.0345617
0.0336834
0.0328147
0.0319563
0.0311086
0.0302719
0.0294466
0.028633
0.0278314
0.0270421
0.0262652
0.025501
0.0247496
0.0240111
0.0232856
0.0225732
0.021874
0.0211879
0.020515
0.0198554
0.0192089
0.0185756
0.0179554
0.0173482
0.016754
0.0161727
0.0156041
0.0150482
0.0145049
0.0139741
0.0134555
0.0129491
0.0124548
0.0119723
0.0115016
0.0110424
0.0105946
0.0101581
0.00973272
0.00931821
0.00891444
0.00852123
0.0081384
0.00776579
0.00740322
0.00705049
0.00670745
0.0063739
0.00604966
0.00573457
0.00542844
0.00513109
0.00484236
0.00456205
0.00429001
0.00402605
0.00377001
0.00352171
0.00328099
0.00304768
0.00282162
0.00260264
0.00239058
0.00218529
0.00198661
0.00179438
0.00160845
0.00142867
0.0012549
0.00108699
0.000924786
0.00076816
0.000616971
0.000471081
0.000330358
0.000194668
6.38846e-05
)
;
    }
    fixedWalls-bottom
    {
        type            calculated;
        value           uniform 0;
    }
    fixedWalls-top
    {
        type            symmetry;
        value           uniform 0;
    }
    frontAndBack
    {
        type            empty;
        value           nonuniform List<scalar> 0();
    }
}


// ************************************************************************* //
