/*--------------------------------*- C++ -*----------------------------------*\
  =========                 |
  \\      /  F ield         | OpenFOAM: The Open Source CFD Toolbox
   \\    /   O peration     | Website:  https://openfoam.org
    \\  /    A nd           | Version:  10
     \\/     M anipulation  |
\*---------------------------------------------------------------------------*/
FoamFile
{
    format      ascii;
    class       volVectorField;
    location    "5000";
    object      U;
}
// * * * * * * * * * * * * * * * * * * * * * * * * * * * * * * * * * * * * * //

dimensions      [0 1 -1 0 0 0 0];

internalField   nonuniform List<vector> 
400
(
(0.0069233 5.13486e-15 0)
(0.0069233 3.33114e-15 0)
(0.0069233 4.48348e-15 0)
(0.0069233 -3.34669e-15 0)
(0.0208032 -3.36024e-14 0)
(0.0208032 5.56189e-14 0)
(0.0208032 5.63997e-14 0)
(0.0208032 -5.56867e-14 0)
(0.0348127 -1.34549e-13 0)
(0.0348127 1.64459e-13 0)
(0.0348127 1.56523e-13 0)
(0.0348127 -1.64581e-13 0)
(0.0489517 -2.84189e-13 0)
(0.0489517 3.35264e-13 0)
(0.0489517 3.04878e-13 0)
(0.0489517 -3.35443e-13 0)
(0.0632202 -4.76491e-13 0)
(0.0632202 5.6947e-13 0)
(0.0632202 4.96879e-13 0)
(0.0632202 -5.69703e-13 0)
(0.0776178 -7.08133e-13 0)
(0.0776178 8.6935e-13 0)
(0.0776178 7.28436e-13 0)
(0.0776178 -8.69637e-13 0)
(0.0921444 -9.75213e-13 0)
(0.0921444 1.23757e-12 0)
(0.0921444 9.95453e-13 0)
(0.0921444 -1.23791e-12 0)
(0.1068 -1.27318e-12 0)
(0.1068 1.67672e-12 0)
(0.1068 1.29327e-12 0)
(0.1068 -1.67711e-12 0)
(0.121583 -1.59668e-12 0)
(0.121583 2.18923e-12 0)
(0.121583 1.61663e-12 0)
(0.121583 -2.18968e-12 0)
(0.136495 -1.93988e-12 0)
(0.136495 2.7774e-12 0)
(0.136495 1.95966e-12 0)
(0.136495 -2.7779e-12 0)
(0.151534 -2.29626e-12 0)
(0.151534 3.44335e-12 0)
(0.151534 2.31589e-12 0)
(0.151534 -3.4439e-12 0)
(0.1667 -2.65877e-12 0)
(0.1667 4.18909e-12 0)
(0.1667 2.67823e-12 0)
(0.1667 -4.1897e-12 0)
(0.181992 -3.01964e-12 0)
(0.181992 5.01645e-12 0)
(0.181992 3.03894e-12 0)
(0.181992 -5.01711e-12 0)
(0.197409 -3.37053e-12 0)
(0.197409 5.92707e-12 0)
(0.197409 3.38967e-12 0)
(0.197409 -5.92778e-12 0)
(0.212951 -3.70243e-12 0)
(0.212951 6.92233e-12 0)
(0.212951 3.72142e-12 0)
(0.212951 -6.92311e-12 0)
(0.228617 -4.00569e-12 0)
(0.228617 8.00339e-12 0)
(0.228617 4.02452e-12 0)
(0.228617 -8.00422e-12 0)
(0.244406 -4.27002e-12 0)
(0.244406 9.17098e-12 0)
(0.244406 4.28869e-12 0)
(0.244406 -9.17186e-12 0)
(0.260317 -4.48453e-12 0)
(0.260317 1.04253e-11 0)
(0.260317 4.50304e-12 0)
(0.260317 -1.04262e-11 0)
(0.276348 -4.63778e-12 0)
(0.276348 1.17658e-11 0)
(0.276348 4.65615e-12 0)
(0.276348 -1.17668e-11 0)
(0.292498 -4.7179e-12 0)
(0.292498 1.31906e-11 0)
(0.292498 4.73612e-12 0)
(0.292498 -1.31917e-11 0)
(0.308767 -4.71279e-12 0)
(0.308767 1.46958e-11 0)
(0.308767 4.73087e-12 0)
(0.308767 -1.46969e-11 0)
(0.325152 -4.61045e-12 0)
(0.325152 1.62737e-11 0)
(0.325152 4.62837e-12 0)
(0.325152 -1.62749e-11 0)
(0.341652 -4.39951e-12 0)
(0.341652 1.79107e-11 0)
(0.341652 4.41729e-12 0)
(0.341652 -1.79119e-11 0)
(0.358265 -4.07026e-12 0)
(0.358265 1.95839e-11 0)
(0.358265 4.0879e-12 0)
(0.358265 -1.95852e-11 0)
(0.37499 -3.61693e-12 0)
(0.37499 2.12544e-11 0)
(0.37499 3.63443e-12 0)
(0.37499 -2.12558e-11 0)
(0.391824 -3.04288e-12 0)
(0.391824 2.28373e-11 0)
(0.391824 3.06023e-12 0)
(0.391824 -2.28387e-11 0)
(0.408766 -2.37044e-12 0)
(0.408766 2.41321e-11 0)
(0.408766 2.38765e-12 0)
(0.408766 -2.41335e-11 0)
(0.425813 -1.64133e-12 0)
(0.425813 2.48021e-11 0)
(0.425813 1.6584e-12 0)
(0.425813 -2.48036e-11 0)
(0.442964 -8.31079e-13 0)
(0.442964 2.51341e-11 0)
(0.442964 8.48012e-13 0)
(0.442964 -2.51357e-11 0)
(0.460215 3.93762e-14 0)
(0.460215 2.49829e-11 0)
(0.460215 -2.25901e-14 0)
(0.460215 -2.49845e-11 0)
(0.477564 1.02158e-12 0)
(0.477564 2.48456e-11 0)
(0.477564 -1.00493e-12 0)
(0.477564 -2.48473e-11 0)
(0.495008 2.11528e-12 0)
(0.495008 2.47277e-11 0)
(0.495008 -2.09878e-12 0)
(0.495008 -2.47294e-11 0)
(0.512545 3.31607e-12 0)
(0.512545 2.4611e-11 0)
(0.512545 -3.2997e-12 0)
(0.512545 -2.46128e-11 0)
(0.530171 4.62067e-12 0)
(0.530171 2.45044e-11 0)
(0.530171 -4.60446e-12 0)
(0.530171 -2.45062e-11 0)
(0.547883 6.02609e-12 0)
(0.547883 2.44298e-11 0)
(0.547883 -6.01001e-12 0)
(0.547883 -2.44317e-11 0)
(0.565678 7.52822e-12 0)
(0.565678 2.44106e-11 0)
(0.565678 -7.51229e-12 0)
(0.565678 -2.44125e-11 0)
(0.583552 9.12377e-12 0)
(0.583552 2.44669e-11 0)
(0.583552 -9.10798e-12 0)
(0.583552 -2.44688e-11 0)
(0.601501 1.08096e-11 0)
(0.601501 2.46156e-11 0)
(0.601501 -1.07939e-11 0)
(0.601501 -2.46176e-11 0)
(0.619522 1.25843e-11 0)
(0.619522 2.4867e-11 0)
(0.619522 -1.25688e-11 0)
(0.619522 -2.48691e-11 0)
(0.637611 1.4447e-11 0)
(0.637611 2.52262e-11 0)
(0.637611 -1.44317e-11 0)
(0.637611 -2.52283e-11 0)
(0.655762 1.6398e-11 0)
(0.655762 2.56946e-11 0)
(0.655762 -1.63828e-11 0)
(0.655762 -2.56968e-11 0)
(0.673972 1.84376e-11 0)
(0.673972 2.62712e-11 0)
(0.673972 -1.84225e-11 0)
(0.673972 -2.62734e-11 0)
(0.692235 2.05665e-11 0)
(0.692235 2.69527e-11 0)
(0.692235 -2.05516e-11 0)
(0.692235 -2.69549e-11 0)
(0.710547 2.27859e-11 0)
(0.710547 2.77343e-11 0)
(0.710547 -2.27712e-11 0)
(0.710547 -2.77365e-11 0)
(0.728903 2.50973e-11 0)
(0.728903 2.86096e-11 0)
(0.728903 -2.50827e-11 0)
(0.728903 -2.8612e-11 0)
(0.747296 2.75022e-11 0)
(0.747296 2.95714e-11 0)
(0.747296 -2.74877e-11 0)
(0.747296 -2.95737e-11 0)
(0.765722 3.00019e-11 0)
(0.765722 3.06104e-11 0)
(0.765722 -2.99877e-11 0)
(0.765722 -3.06128e-11 0)
(0.784174 3.2598e-11 0)
(0.784174 3.17175e-11 0)
(0.784174 -3.25839e-11 0)
(0.784174 -3.17199e-11 0)
(0.802646 3.5291e-11 0)
(0.802646 3.28814e-11 0)
(0.802646 -3.5277e-11 0)
(0.802646 -3.28839e-11 0)
(0.821132 3.80809e-11 0)
(0.821132 3.40905e-11 0)
(0.821132 -3.80671e-11 0)
(0.821132 -3.40931e-11 0)
(0.839624 4.09659e-11 0)
(0.839624 3.53312e-11 0)
(0.839624 -4.09523e-11 0)
(0.839624 -3.53338e-11 0)
(0.858116 4.39432e-11 0)
(0.858116 3.65896e-11 0)
(0.858116 -4.39297e-11 0)
(0.858116 -3.65922e-11 0)
(0.8766 4.70073e-11 0)
(0.8766 3.78496e-11 0)
(0.8766 -4.6994e-11 0)
(0.8766 -3.78522e-11 0)
(0.895069 5.01513e-11 0)
(0.895069 3.90948e-11 0)
(0.895069 -5.01382e-11 0)
(0.895069 -3.90975e-11 0)
(0.913514 5.33651e-11 0)
(0.913514 4.03056e-11 0)
(0.913514 -5.33522e-11 0)
(0.913514 -4.03084e-11 0)
(0.931927 5.66341e-11 0)
(0.931927 4.14637e-11 0)
(0.931927 -5.66213e-11 0)
(0.931927 -4.14664e-11 0)
(0.9503 5.99375e-11 0)
(0.9503 4.25437e-11 0)
(0.9503 -5.99248e-11 0)
(0.9503 -4.25465e-11 0)
(0.968623 6.32476e-11 0)
(0.968623 4.35241e-11 0)
(0.968623 -6.32352e-11 0)
(0.968623 -4.35269e-11 0)
(0.986886 6.65303e-11 0)
(0.986886 4.43816e-11 0)
(0.986886 -6.6518e-11 0)
(0.986886 -4.43844e-11 0)
(1.00508 6.97453e-11 0)
(1.00508 4.50968e-11 0)
(1.00508 -6.97333e-11 0)
(1.00508 -4.50996e-11 0)
(1.0232 7.28455e-11 0)
(1.0232 4.56507e-11 0)
(1.0232 -7.28336e-11 0)
(1.0232 -4.56536e-11 0)
(1.04122 7.57756e-11 0)
(1.04122 4.60254e-11 0)
(1.04122 -7.5764e-11 0)
(1.04122 -4.60283e-11 0)
(1.05915 7.84716e-11 0)
(1.05915 4.62027e-11 0)
(1.05915 -7.84601e-11 0)
(1.05915 -4.62056e-11 0)
(1.07696 8.08592e-11 0)
(1.07696 4.61616e-11 0)
(1.07696 -8.08479e-11 0)
(1.07696 -4.61645e-11 0)
(1.09465 8.2854e-11 0)
(1.09465 4.58788e-11 0)
(1.09465 -8.28429e-11 0)
(1.09465 -4.58817e-11 0)
(1.1122 8.436e-11 0)
(1.1122 4.5323e-11 0)
(1.1122 -8.43491e-11 0)
(1.1122 -4.53259e-11 0)
(1.1296 8.527e-11 0)
(1.1296 4.44569e-11 0)
(1.1296 -8.52594e-11 0)
(1.1296 -4.44599e-11 0)
(1.14684 8.54646e-11 0)
(1.14684 4.32409e-11 0)
(1.14684 -8.54542e-11 0)
(1.14684 -4.32438e-11 0)
(1.1639 8.48133e-11 0)
(1.1639 4.16392e-11 0)
(1.1639 -8.48031e-11 0)
(1.1639 -4.16421e-11 0)
(1.18077 8.31746e-11 0)
(1.18077 3.9625e-11 0)
(1.18077 -8.31646e-11 0)
(1.18077 -3.96279e-11 0)
(1.19744 8.03984e-11 0)
(1.19744 3.71881e-11 0)
(1.19744 -8.03887e-11 0)
(1.19744 -3.7191e-11 0)
(1.21388 7.63263e-11 0)
(1.21388 3.43431e-11 0)
(1.21388 -7.63168e-11 0)
(1.21388 -3.4346e-11 0)
(1.23008 7.07975e-11 0)
(1.23008 3.11389e-11 0)
(1.23008 -7.07883e-11 0)
(1.23008 -3.11418e-11 0)
(1.24603 6.36526e-11 0)
(1.24603 2.76691e-11 0)
(1.24603 -6.36436e-11 0)
(1.24603 -2.76719e-11 0)
(1.26171 5.47444e-11 0)
(1.26171 2.40822e-11 0)
(1.26171 -5.47356e-11 0)
(1.26171 -2.4085e-11 0)
(1.2771 4.39494e-11 0)
(1.2771 2.05928e-11 0)
(1.2771 -4.3941e-11 0)
(1.2771 -2.05956e-11 0)
(1.29219 3.11883e-11 0)
(1.29219 1.74882e-11 0)
(1.29219 -3.11801e-11 0)
(1.29219 -1.7491e-11 0)
(1.30694 1.64475e-11 0)
(1.30694 1.51329e-11 0)
(1.30694 -1.64396e-11 0)
(1.30694 -1.51356e-11 0)
(1.32135 -1.81774e-13 0)
(1.32135 1.39524e-11 0)
(1.32135 1.89414e-13 0)
(1.32135 -1.39551e-11 0)
(1.33538 -1.84518e-11 0)
(1.33538 1.43941e-11 0)
(1.33538 1.84591e-11 0)
(1.33538 -1.43967e-11 0)
(1.34903 -3.79137e-11 0)
(1.34903 1.69397e-11 0)
(1.34903 3.79207e-11 0)
(1.34903 -1.69423e-11 0)
(1.36227 -5.81176e-11 0)
(1.36227 2.21296e-11 0)
(1.36227 5.81243e-11 0)
(1.36227 -2.21322e-11 0)
(1.37508 -7.85641e-11 0)
(1.37508 3.0554e-11 0)
(1.37508 7.85705e-11 0)
(1.37508 -3.05565e-11 0)
(1.38742 -9.88475e-11 0)
(1.38742 4.29479e-11 0)
(1.38742 9.88535e-11 0)
(1.38742 -4.29504e-11 0)
(1.39928 -1.1845e-10 0)
(1.39928 6.07898e-11 0)
(1.39928 1.18455e-10 0)
(1.39928 -6.07922e-11 0)
(1.41064 -1.36577e-10 0)
(1.41064 8.7228e-11 0)
(1.41064 1.36583e-10 0)
(1.41064 -8.72303e-11 0)
(1.42146 -1.52051e-10 0)
(1.42146 1.24032e-10 0)
(1.42146 1.52056e-10 0)
(1.42146 -1.24035e-10 0)
(1.43172 -1.63731e-10 0)
(1.43172 1.41536e-10 0)
(1.43172 1.63736e-10 0)
(1.43172 -1.41538e-10 0)
(1.44138 -1.69599e-10 0)
(1.44138 1.50708e-10 0)
(1.44138 1.69603e-10 0)
(1.44138 -1.5071e-10 0)
(1.45043 -1.69507e-10 0)
(1.45043 1.29352e-10 0)
(1.45043 1.69511e-10 0)
(1.45043 -1.29354e-10 0)
(1.45883 -1.63378e-10 0)
(1.45883 9.90708e-11 0)
(1.45883 1.63382e-10 0)
(1.45883 -9.90726e-11 0)
(1.46655 -1.52131e-10 0)
(1.46655 6.91284e-11 0)
(1.46655 1.52134e-10 0)
(1.46655 -6.913e-11 0)
(1.47355 -1.3692e-10 0)
(1.47355 4.33241e-11 0)
(1.47355 1.36923e-10 0)
(1.47355 -4.33256e-11 0)
(1.47981 -1.19132e-10 0)
(1.47981 2.29073e-11 0)
(1.47981 1.19134e-10 0)
(1.47981 -2.29087e-11 0)
(1.48529 -1.00045e-10 0)
(1.48529 8.13061e-12 0)
(1.48529 1.00047e-10 0)
(1.48529 -8.13182e-12 0)
(1.48995 -8.06565e-11 0)
(1.48995 -1.32542e-12 0)
(1.48995 8.0658e-11 0)
(1.48995 1.3244e-12 0)
(1.49376 -6.1635e-11 0)
(1.49376 -6.13593e-12 0)
(1.49376 6.16362e-11 0)
(1.49376 6.13512e-12 0)
(1.49668 -4.33117e-11 0)
(1.49668 -7.17345e-12 0)
(1.49668 4.33124e-11 0)
(1.49668 7.17287e-12 0)
(1.49866 -2.57034e-11 0)
(1.49866 -5.42901e-12 0)
(1.49866 2.57037e-11 0)
(1.49866 5.42869e-12 0)
(1.49968 -8.54787e-12 0)
(1.49968 -1.97567e-12 0)
(1.49968 8.54796e-12 0)
(1.49968 1.97558e-12 0)
)
;

boundaryField
{
    inlet
    {
        type            cyclic;
    }
    outlet
    {
        type            cyclic;
    }
    fixedWalls-bottom
    {
        type            noSlip;
    }
    fixedWalls-top
    {
        type            symmetry;
    }
    frontAndBack
    {
        type            empty;
    }
}


// ************************************************************************* //
