/*--------------------------------*- C++ -*----------------------------------*\
  =========                 |
  \\      /  F ield         | OpenFOAM: The Open Source CFD Toolbox
   \\    /   O peration     | Website:  https://openfoam.org
    \\  /    A nd           | Version:  10
     \\/     M anipulation  |
\*---------------------------------------------------------------------------*/
FoamFile
{
    format      ascii;
    class       volScalarField;
    location    "5053";
    object      k;
}
// * * * * * * * * * * * * * * * * * * * * * * * * * * * * * * * * * * * * * //

dimensions      [0 2 -2 0 0 0 0];

internalField   nonuniform List<scalar> 
400
(
3.91341e-06
3.91355e-06
3.91327e-06
3.91328e-06
0.000117057
0.000117062
0.000117053
0.000117054
0.000788765
0.00078879
0.000788735
0.000788737
0.00227663
0.00227666
0.00227651
0.00227652
0.00386976
0.00386973
0.00386949
0.00386952
0.00507427
0.00507416
0.00507389
0.00507394
0.00592374
0.00592358
0.00592329
0.00592337
0.00651766
0.00651747
0.00651719
0.0065173
0.00693555
0.00693535
0.00693509
0.00693523
0.00723313
0.00723292
0.0072327
0.00723288
0.00744742
0.00744722
0.00744704
0.00744726
0.00760287
0.00760267
0.00760253
0.00760279
0.00771576
0.00771558
0.00771548
0.00771577
0.00779719
0.00779701
0.00779696
0.00779727
0.00785482
0.00785467
0.00785465
0.00785495
0.00789406
0.00789392
0.00789393
0.00789422
0.0079187
0.00791858
0.0079186
0.00791888
0.00793152
0.00793142
0.00793145
0.00793171
0.00793454
0.00793445
0.00793449
0.00793474
0.00792934
0.00792925
0.00792929
0.00792952
0.00791715
0.00791708
0.00791712
0.00791733
0.007899
0.00789893
0.00789898
0.00789916
0.00787571
0.00787564
0.00787569
0.00787585
0.00784795
0.00784789
0.00784793
0.00784807
0.00781629
0.00781624
0.00781629
0.00781639
0.00778118
0.00778114
0.00778118
0.00778126
0.00774295
0.00774292
0.00774296
0.007743
0.00770186
0.00770184
0.00770188
0.00770189
0.00765812
0.00765811
0.00765815
0.00765813
0.00761189
0.0076119
0.00761194
0.00761188
0.00756332
0.00756334
0.00756338
0.00756329
0.00751252
0.00751255
0.00751259
0.00751248
0.00745959
0.00745964
0.00745968
0.00745954
0.00740462
0.00740468
0.00740472
0.00740456
0.00734768
0.00734776
0.00734779
0.00734762
0.00728883
0.00728892
0.00728896
0.00728877
0.00722813
0.00722822
0.00722826
0.00722806
0.00716561
0.00716571
0.00716575
0.00716554
0.00710131
0.00710141
0.00710146
0.00710124
0.00703527
0.00703537
0.00703543
0.00703521
0.00696752
0.00696762
0.00696768
0.00696746
0.0068981
0.00689821
0.00689827
0.00689805
0.00682707
0.00682717
0.00682725
0.00682702
0.00675451
0.0067546
0.00675468
0.00675446
0.00668051
0.0066806
0.00668069
0.00668046
0.00660523
0.00660532
0.00660541
0.00660519
0.00652887
0.00652896
0.00652905
0.00652882
0.00645167
0.00645175
0.00645184
0.00645162
0.00637391
0.00637398
0.00637406
0.00637387
0.00629588
0.00629593
0.00629601
0.00629584
0.00621779
0.00621783
0.00621791
0.00621778
0.00613974
0.00613977
0.00613984
0.00613976
0.00606155
0.00606158
0.00606164
0.00606157
0.00598302
0.00598304
0.00598309
0.00598301
0.00590408
0.00590409
0.00590414
0.00590405
0.00582474
0.00582475
0.0058248
0.0058247
0.00574501
0.00574502
0.00574507
0.00574496
0.00566489
0.0056649
0.00566495
0.00566484
0.00558438
0.0055844
0.00558444
0.00558433
0.00550349
0.00550351
0.00550355
0.00550344
0.00542222
0.00542224
0.00542228
0.00542217
0.00534057
0.00534059
0.00534063
0.00534052
0.00525856
0.00525859
0.00525863
0.00525852
0.0051762
0.00517623
0.00517627
0.00517616
0.00509351
0.00509353
0.00509357
0.00509348
0.00501051
0.00501054
0.00501058
0.00501049
0.00492724
0.00492726
0.0049273
0.00492722
0.00484373
0.00484376
0.0048438
0.00484372
0.00476004
0.00476006
0.0047601
0.00476003
0.0046762
0.00467622
0.00467626
0.0046762
0.00459229
0.0045923
0.00459233
0.00459228
0.00450836
0.00450837
0.0045084
0.00450836
0.00442449
0.0044245
0.00442453
0.00442449
0.00434077
0.00434078
0.0043408
0.00434077
0.00425729
0.0042573
0.00425732
0.0042573
0.00417417
0.00417417
0.00417419
0.00417417
0.0040915
0.0040915
0.00409152
0.0040915
0.00400942
0.00400942
0.00400944
0.00400943
0.00392809
0.00392809
0.0039281
0.0039281
0.00384764
0.00384764
0.00384765
0.00384765
0.00376826
0.00376826
0.00376826
0.00376828
0.00369013
0.00369013
0.00369014
0.00369016
0.00361346
0.00361346
0.00361346
0.00361349
0.00353846
0.00353847
0.00353846
0.0035385
0.00346538
0.00346539
0.00346538
0.00346542
0.00339447
0.00339447
0.00339447
0.00339451
0.003326
0.003326
0.003326
0.00332604
0.00326025
0.00326025
0.00326025
0.00326029
0.00319752
0.00319752
0.00319752
0.00319756
0.00313814
0.00313813
0.00313813
0.00313818
0.00308242
0.00308241
0.00308241
0.00308246
0.00303071
0.00303069
0.0030307
0.00303075
0.00298335
0.00298333
0.00298333
0.00298339
0.00294069
0.00294067
0.00294067
0.00294073
0.00290309
0.00290307
0.00290307
0.00290313
0.0028709
0.00287088
0.00287089
0.00287095
0.00284448
0.00284446
0.00284446
0.00284452
0.00282417
0.00282415
0.00282415
0.00282421
0.00281031
0.00281029
0.0028103
0.00281035
0.00280323
0.00280321
0.00280321
0.00280327
)
;

boundaryField
{
    inlet
    {
        type            cyclic;
    }
    outlet
    {
        type            cyclic;
    }
    fixedWalls-bottom
    {
        type            kqRWallFunction;
        value           nonuniform List<scalar> 4(3.91341e-06 3.91355e-06 3.91327e-06 3.91328e-06);
    }
    fixedWalls-top
    {
        type            symmetry;
    }
    frontAndBack
    {
        type            empty;
    }
}


// ************************************************************************* //
