/*--------------------------------*- C++ -*----------------------------------*\
  =========                 |
  \\      /  F ield         | OpenFOAM: The Open Source CFD Toolbox
   \\    /   O peration     | Website:  https://openfoam.org
    \\  /    A nd           | Version:  10
     \\/     M anipulation  |
\*---------------------------------------------------------------------------*/
FoamFile
{
    format      ascii;
    class       volScalarField;
    location    "5053";
    object      omega;
}
// * * * * * * * * * * * * * * * * * * * * * * * * * * * * * * * * * * * * * //

dimensions      [0 0 -1 0 0 0 0];

internalField   nonuniform List<scalar> 
400
(
1847.54
1847.54
1847.54
1847.54
322.43
322.429
322.429
322.429
120.379
120.377
120.376
120.376
68.1006
68.099
68.0991
68.0992
46.4972
46.4968
46.4976
46.4975
34.6283
34.629
34.6297
34.6297
27.1304
27.1316
27.1322
27.1321
22.0137
22.015
22.0153
22.0152
18.3438
18.3449
18.345
18.345
15.6127
15.6135
15.6136
15.6135
13.5189
13.5196
13.5195
13.5192
11.8733
11.8738
11.8737
11.8732
10.5523
10.5526
10.5525
10.5517
9.47178
9.47195
9.4718
9.47094
8.57333
8.57339
8.5732
8.57224
7.81503
7.81503
7.8148
7.81379
7.16635
7.16632
7.16608
7.16509
6.6049
6.60487
6.60464
6.60372
6.11411
6.11407
6.11385
6.11301
5.6813
5.68126
5.68105
5.68033
5.29667
5.29662
5.29642
5.29583
4.95249
4.95244
4.95222
4.95181
4.64266
4.64259
4.64236
4.64214
4.36226
4.36219
4.36193
4.3619
4.10726
4.10719
4.10695
4.10703
3.87432
3.87424
3.87403
3.8742
3.66067
3.66059
3.66044
3.66066
3.46404
3.46397
3.46389
3.46417
3.28253
3.28249
3.28246
3.28281
3.11452
3.11451
3.11452
3.11493
2.95859
2.95864
2.95864
2.95914
2.81353
2.81359
2.81362
2.81421
2.67832
2.67839
2.67845
2.67911
2.55209
2.55214
2.55224
2.55297
2.4341
2.43409
2.43426
2.43502
2.32362
2.3236
2.32383
2.32461
2.22012
2.22011
2.22034
2.22117
2.12307
2.12306
2.1233
2.12416
2.03199
2.03199
2.03224
2.03312
1.94647
1.94647
1.94672
1.94762
1.86612
1.86612
1.86635
1.86726
1.79056
1.79057
1.79077
1.79169
1.71945
1.71952
1.71964
1.72057
1.65245
1.65257
1.65266
1.65359
1.58935
1.58945
1.58955
1.59046
1.52986
1.52992
1.53004
1.53092
1.47374
1.47374
1.47387
1.47473
1.4207
1.42069
1.42083
1.42165
1.37059
1.37057
1.3707
1.37149
1.32321
1.3232
1.32332
1.32407
1.27839
1.2784
1.2785
1.27922
1.23595
1.236
1.23607
1.23675
1.19572
1.19577
1.19584
1.19646
1.15754
1.1576
1.15766
1.15824
1.12134
1.1214
1.12145
1.12199
1.08699
1.08705
1.08709
1.0876
1.0544
1.05447
1.0545
1.05497
1.02349
1.02357
1.0236
1.02403
0.994196
0.994272
0.994304
0.994703
0.966426
0.966494
0.966525
0.966889
0.940088
0.940137
0.940171
0.940498
0.915088
0.915096
0.91514
0.91543
0.891285
0.891285
0.891329
0.891585
0.868603
0.868603
0.86864
0.868866
0.846949
0.846953
0.846979
0.847178
0.826236
0.826246
0.826264
0.826436
0.806386
0.806406
0.806417
0.806564
0.787347
0.787361
0.787372
0.787494
0.769051
0.769059
0.76907
0.769166
0.751445
0.751446
0.751456
0.751529
0.734481
0.734476
0.734486
0.734537
0.718117
0.718107
0.718117
0.718147
0.702317
0.702304
0.702313
0.702324
0.687044
0.687034
0.687035
0.687034
0.672277
0.672267
0.672261
0.672243
0.657985
0.657979
0.657961
0.657926
0.644146
0.644125
0.644118
0.644057
0.630735
0.630714
0.630701
0.630613
0.617744
0.617685
0.617705
0.617576
0.605132
0.605064
0.605086
0.604936
0.592899
0.592825
0.592852
0.592676
0.581037
0.580958
0.580982
0.580793
0.569539
0.569463
0.569486
0.569274
0.5584
0.558341
0.558343
0.558131
0.547609
0.547605
0.547556
0.547366
0.537232
0.537243
0.53714
0.536987
0.527253
0.527252
0.527151
0.526998
0.517691
0.517661
0.517591
0.517425
0.50857
0.508587
0.508458
0.508294
0.499923
0.499947
0.49982
0.499635
0.491786
0.491812
0.491703
0.491485
0.484205
0.48421
0.484142
0.483888
0.477232
0.477234
0.477136
0.476902
0.470922
0.470854
0.470825
0.470558
0.465242
0.465275
0.465155
0.464935
0.460386
0.460398
0.460303
0.460066
0.456386
0.456318
0.456292
0.456022
0.453189
0.453228
0.453114
0.45288
0.451008
0.451003
0.450932
0.450681
0.449856
0.449761
0.449727
0.449497
)
;

boundaryField
{
    inlet
    {
        type            cyclic;
    }
    outlet
    {
        type            cyclic;
    }
    fixedWalls-bottom
    {
        beta1           0.075;
        blended         0;
        type            omegaWallFunction;
        value           uniform 1847.54;
    }
    fixedWalls-top
    {
        type            symmetry;
    }
    frontAndBack
    {
        type            empty;
    }
}


// ************************************************************************* //
