/*--------------------------------*- C++ -*----------------------------------*\
  =========                 |
  \\      /  F ield         | OpenFOAM: The Open Source CFD Toolbox
   \\    /   O peration     | Website:  https://openfoam.org
    \\  /    A nd           | Version:  10
     \\/     M anipulation  |
\*---------------------------------------------------------------------------*/
FoamFile
{
    format      ascii;
    class       volSymmTensorField;
    location    "5053";
    object      R;
}
// * * * * * * * * * * * * * * * * * * * * * * * * * * * * * * * * * * * * * //

dimensions      [0 2 -2 0 0 0 0];

internalField   nonuniform List<symmTensor> 
400
(
(2.60894e-06 -5.10996e-08 -0 2.60894e-06 -0 2.60894e-06)
(2.60903e-06 -5.11017e-08 -0 2.60903e-06 -0 2.60903e-06)
(2.60885e-06 -5.10975e-08 -0 2.60885e-06 -0 2.60885e-06)
(2.60885e-06 -5.10974e-08 -0 2.60885e-06 -0 2.60885e-06)
(7.80383e-05 -8.59914e-06 -0 7.80383e-05 -0 7.80383e-05)
(7.80411e-05 -8.5995e-06 -0 7.80411e-05 -0 7.80411e-05)
(7.80355e-05 -8.5988e-06 -0 7.80355e-05 -0 7.80355e-05)
(7.80357e-05 -8.59879e-06 -0 7.80357e-05 -0 7.80357e-05)
(0.000525843 -0.000143677 -0 0.000525843 -0 0.000525843)
(0.00052586 -0.000143685 -0 0.00052586 -0 0.00052586)
(0.000525823 -0.000143674 -0 0.000525823 -0 0.000525823)
(0.000525824 -0.000143674 -0 0.000525825 -0 0.000525825)
(0.00151775 -0.000612615 -0 0.00151775 -0 0.00151775)
(0.00151777 -0.000612636 -0 0.00151777 -0 0.00151777)
(0.00151767 -0.000612593 -0 0.00151767 -0 0.00151767)
(0.00151768 -0.000612595 -0 0.00151768 -0 0.00151768)
(0.00257984 -0.00118243 -0 0.00257984 -0 0.00257984)
(0.00257982 -0.00118243 -0 0.00257982 -0 0.00257982)
(0.00257966 -0.00118235 -0 0.00257966 -0 0.00257966)
(0.00257968 -0.00118236 -0 0.00257968 -0 0.00257968)
(0.00338284 -0.00157303 -0 0.00338284 -0 0.00338284)
(0.00338278 -0.001573 -0 0.00338277 -0 0.00338278)
(0.00338259 -0.00157291 -0 0.00338259 -0 0.00338259)
(0.00338263 -0.00157293 -0 0.00338263 -0 0.00338263)
(0.00394916 -0.00183643 -0 0.00394916 -0 0.00394916)
(0.00394905 -0.00183638 -0 0.00394905 -0 0.00394905)
(0.00394886 -0.00183629 -0 0.00394886 -0 0.00394886)
(0.00394891 -0.00183632 -0 0.00394892 -0 0.00394891)
(0.00434511 -0.00202064 -0 0.00434511 -0 0.00434511)
(0.00434498 -0.00202058 -0 0.00434498 -0 0.00434498)
(0.0043448 -0.00202049 -0 0.00434479 -0 0.0043448)
(0.00434487 -0.00202053 -0 0.00434487 -0 0.00434487)
(0.0046237 -0.00215005 -0 0.0046237 -0 0.0046237)
(0.00462356 -0.00214999 -0 0.00462356 -0 0.00462356)
(0.00462339 -0.00214991 -0 0.00462339 -0 0.00462339)
(0.00462348 -0.00214995 -0 0.00462349 -0 0.00462349)
(0.00482209 -0.00224228 -0 0.00482209 -0 0.00482209)
(0.00482195 -0.00224221 -0 0.00482195 -0 0.00482195)
(0.0048218 -0.00224214 -0 0.0048218 -0 0.0048218)
(0.00482192 -0.0022422 -0 0.00482192 -0 0.00482192)
(0.00496495 -0.0023087 -0 0.00496495 -0 0.00496495)
(0.00496482 -0.00230864 -0 0.00496481 -0 0.00496482)
(0.00496469 -0.00230858 -0 0.00496469 -0 0.00496469)
(0.00496484 -0.00230865 -0 0.00496484 -0 0.00496484)
(0.00506858 -0.00235689 -0 0.00506857 -0 0.00506858)
(0.00506845 -0.00235683 -0 0.00506845 -0 0.00506845)
(0.00506835 -0.00235679 -0 0.00506836 -0 0.00506836)
(0.00506853 -0.00235687 -0 0.00506853 -0 0.00506853)
(0.00514385 -0.00239189 -0 0.00514384 -0 0.00514384)
(0.00514372 -0.00239183 -0 0.00514372 -0 0.00514372)
(0.00514365 -0.0023918 -0 0.00514366 -0 0.00514366)
(0.00514385 -0.00239189 -0 0.00514385 -0 0.00514385)
(0.00519813 -0.00241713 -0 0.00519812 -0 0.00519813)
(0.00519801 -0.00241707 -0 0.00519801 -0 0.00519801)
(0.00519797 -0.00241706 -0 0.00519798 -0 0.00519798)
(0.00519818 -0.00241715 -0 0.00519818 -0 0.00519818)
(0.00523656 -0.00243499 -0 0.00523654 -0 0.00523655)
(0.00523645 -0.00243495 -0 0.00523644 -0 0.00523644)
(0.00523642 -0.00243494 -0 0.00523644 -0 0.00523643)
(0.00523663 -0.00243504 -0 0.00523664 -0 0.00523664)
(0.00526271 -0.00244695 -0 0.0052627 -0 0.0052627)
(0.00526261 -0.00244696 -0 0.00526261 -0 0.00526261)
(0.00526261 -0.00244704 -0 0.00526263 -0 0.00526262)
(0.00526281 -0.00244721 -0 0.00526282 -0 0.00526282)
(0.00527914 -0.0024532 -0 0.00527912 -0 0.00527913)
(0.00527905 -0.00245323 -0 0.00527905 -0 0.00527905)
(0.00527906 -0.00245331 -0 0.00527907 -0 0.00527907)
(0.00527925 -0.00245351 -0 0.00527926 -0 0.00527926)
(0.00528769 -0.00245681 -0 0.00528768 -0 0.00528768)
(0.00528761 -0.00245687 -0 0.00528761 -0 0.00528761)
(0.00528763 -0.00245696 -0 0.00528764 -0 0.00528763)
(0.00528781 -0.00245714 -0 0.00528781 -0 0.00528781)
(0.0052897 -0.00245758 -0 0.00528969 -0 0.0052897)
(0.00528963 -0.00245765 -0 0.00528963 -0 0.00528963)
(0.00528966 -0.00245775 -0 0.00528966 -0 0.00528966)
(0.00528982 -0.00245792 -0 0.00528982 -0 0.00528982)
(0.00528622 -0.00245597 -0 0.00528622 -0 0.00528622)
(0.00528617 -0.00245604 -0 0.00528617 -0 0.00528617)
(0.00528619 -0.00245615 -0 0.0052862 -0 0.0052862)
(0.00528635 -0.00245631 -0 0.00528635 -0 0.00528635)
(0.0052781 -0.00245233 -0 0.0052781 -0 0.0052781)
(0.00527805 -0.00245241 -0 0.00527805 -0 0.00527805)
(0.00527808 -0.00245251 -0 0.00527808 -0 0.00527808)
(0.00527822 -0.00245265 -0 0.00527822 -0 0.00527822)
(0.005266 -0.00244696 -0 0.00526601 -0 0.005266)
(0.00526595 -0.00244703 -0 0.00526596 -0 0.00526595)
(0.00526599 -0.00244712 -0 0.00526598 -0 0.00526598)
(0.00526611 -0.00244725 -0 0.0052661 -0 0.00526611)
(0.00525047 -0.00244007 -0 0.00525048 -0 0.00525047)
(0.00525042 -0.00244013 -0 0.00525043 -0 0.00525043)
(0.00525046 -0.00244022 -0 0.00525045 -0 0.00525046)
(0.00525057 -0.00244031 -0 0.00525056 -0 0.00525056)
(0.00523196 -0.00243184 -0 0.00523197 -0 0.00523196)
(0.00523192 -0.00243188 -0 0.00523193 -0 0.00523193)
(0.00523196 -0.00243196 -0 0.00523195 -0 0.00523196)
(0.00523205 -0.00243202 -0 0.00523204 -0 0.00523204)
(0.00521085 -0.00242286 -0 0.00521087 -0 0.00521086)
(0.00521082 -0.00242289 -0 0.00521083 -0 0.00521083)
(0.00521087 -0.00242299 -0 0.00521085 -0 0.00521086)
(0.00521093 -0.00242304 -0 0.00521092 -0 0.00521093)
(0.00518744 -0.00241216 -0 0.00518746 -0 0.00518745)
(0.00518742 -0.00241215 -0 0.00518743 -0 0.00518742)
(0.00518746 -0.00241217 -0 0.00518745 -0 0.00518745)
(0.00518751 -0.00241219 -0 0.0051875 -0 0.0051875)
(0.00516196 -0.00240031 -0 0.00516197 -0 0.00516196)
(0.00516194 -0.0024003 -0 0.00516195 -0 0.00516194)
(0.00516198 -0.00240032 -0 0.00516197 -0 0.00516197)
(0.00516201 -0.00240033 -0 0.005162 -0 0.005162)
(0.00513457 -0.00238758 -0 0.00513458 -0 0.00513457)
(0.00513456 -0.00238757 -0 0.00513457 -0 0.00513456)
(0.00513459 -0.00238758 -0 0.00513458 -0 0.00513459)
(0.0051346 -0.00238759 -0 0.00513459 -0 0.00513459)
(0.00510541 -0.00237402 -0 0.00510541 -0 0.00510541)
(0.0051054 -0.00237402 -0 0.00510541 -0 0.00510541)
(0.00510544 -0.00237403 -0 0.00510543 -0 0.00510543)
(0.00510542 -0.00237402 -0 0.00510541 -0 0.00510542)
(0.0050746 -0.00235969 -0 0.00507459 -0 0.0050746)
(0.0050746 -0.00235969 -0 0.0050746 -0 0.0050746)
(0.00507462 -0.0023597 -0 0.00507463 -0 0.00507463)
(0.00507459 -0.00235968 -0 0.00507458 -0 0.00507459)
(0.00504221 -0.00234463 -0 0.00504221 -0 0.00504221)
(0.00504222 -0.00234464 -0 0.00504223 -0 0.00504223)
(0.00504225 -0.00234465 -0 0.00504225 -0 0.00504225)
(0.0050422 -0.00234462 -0 0.00504219 -0 0.00504219)
(0.00500835 -0.00232888 -0 0.00500834 -0 0.00500834)
(0.00500837 -0.00232889 -0 0.00500837 -0 0.00500837)
(0.00500839 -0.0023289 -0 0.0050084 -0 0.00500839)
(0.00500832 -0.00232887 -0 0.00500831 -0 0.00500832)
(0.00497306 -0.00231247 -0 0.00497306 -0 0.00497306)
(0.00497309 -0.00231249 -0 0.0049731 -0 0.00497309)
(0.00497312 -0.0023125 -0 0.00497312 -0 0.00497312)
(0.00497303 -0.00231246 -0 0.00497302 -0 0.00497302)
(0.00493641 -0.00229543 -0 0.00493641 -0 0.00493641)
(0.00493645 -0.00229545 -0 0.00493646 -0 0.00493646)
(0.00493648 -0.00229546 -0 0.00493648 -0 0.00493648)
(0.00493637 -0.00229541 -0 0.00493637 -0 0.00493637)
(0.00489845 -0.00227778 -0 0.00489845 -0 0.00489845)
(0.0048985 -0.0022778 -0 0.0048985 -0 0.0048985)
(0.00489853 -0.00227782 -0 0.00489853 -0 0.00489853)
(0.00489841 -0.00227776 -0 0.00489841 -0 0.00489841)
(0.00485922 -0.00225954 -0 0.00485922 -0 0.00485922)
(0.00485928 -0.00225956 -0 0.00485928 -0 0.00485928)
(0.0048593 -0.00225958 -0 0.0048593 -0 0.0048593)
(0.00485918 -0.00225952 -0 0.00485918 -0 0.00485918)
(0.00481875 -0.00224072 -0 0.00481875 -0 0.00481875)
(0.00481881 -0.00224075 -0 0.00481881 -0 0.00481881)
(0.00481884 -0.00224076 -0 0.00481884 -0 0.00481884)
(0.00481871 -0.0022407 -0 0.0048187 -0 0.00481871)
(0.00477707 -0.00222134 -0 0.00477707 -0 0.00477707)
(0.00477714 -0.00222137 -0 0.00477714 -0 0.00477714)
(0.00477716 -0.00222138 -0 0.00477717 -0 0.00477717)
(0.00477703 -0.00222132 -0 0.00477703 -0 0.00477703)
(0.00473421 -0.00220141 -0 0.00473421 -0 0.00473421)
(0.00473427 -0.00220144 -0 0.00473428 -0 0.00473428)
(0.00473431 -0.00220145 -0 0.00473431 -0 0.00473431)
(0.00473416 -0.00220139 -0 0.00473416 -0 0.00473416)
(0.00469018 -0.00218093 -0 0.00469018 -0 0.00469018)
(0.00469025 -0.00218097 -0 0.00469025 -0 0.00469025)
(0.00469028 -0.00218098 -0 0.00469029 -0 0.00469028)
(0.00469014 -0.00218091 -0 0.00469014 -0 0.00469014)
(0.00464502 -0.00215993 -0 0.00464501 -0 0.00464501)
(0.00464508 -0.00215996 -0 0.00464508 -0 0.00464508)
(0.00464512 -0.00215998 -0 0.00464512 -0 0.00464512)
(0.00464497 -0.00215991 -0 0.00464497 -0 0.00464497)
(0.00459874 -0.00213841 -0 0.00459874 -0 0.00459874)
(0.0045988 -0.00213844 -0 0.0045988 -0 0.0045988)
(0.00459885 -0.00213846 -0 0.00459885 -0 0.00459885)
(0.0045987 -0.00213839 -0 0.0045987 -0 0.0045987)
(0.00455138 -0.00211639 -0 0.00455138 -0 0.00455138)
(0.00455145 -0.00211642 -0 0.00455145 -0 0.00455145)
(0.0045515 -0.00211645 -0 0.0045515 -0 0.0045515)
(0.00455135 -0.00211638 -0 0.00455135 -0 0.00455135)
(0.00450301 -0.0020939 -0 0.004503 -0 0.00450301)
(0.00450307 -0.00209393 -0 0.00450307 -0 0.00450307)
(0.00450312 -0.00209395 -0 0.00450312 -0 0.00450312)
(0.00450297 -0.00209388 -0 0.00450297 -0 0.00450297)
(0.00445368 -0.00207096 -0 0.00445367 -0 0.00445367)
(0.00445374 -0.00207099 -0 0.00445373 -0 0.00445374)
(0.00445379 -0.00207101 -0 0.0044538 -0 0.00445379)
(0.00445364 -0.00207094 -0 0.00445364 -0 0.00445364)
(0.00440349 -0.00204762 -0 0.00440348 -0 0.00440349)
(0.00440355 -0.00204765 -0 0.00440355 -0 0.00440355)
(0.0044036 -0.00204768 -0 0.00440361 -0 0.00440361)
(0.00440346 -0.00204761 -0 0.00440346 -0 0.00440346)
(0.00435258 -0.00202395 -0 0.00435258 -0 0.00435258)
(0.00435264 -0.00202398 -0 0.00435264 -0 0.00435264)
(0.00435269 -0.002024 -0 0.0043527 -0 0.0043527)
(0.00435255 -0.00202394 -0 0.00435255 -0 0.00435255)
(0.00430112 -0.00200002 -0 0.00430111 -0 0.00430111)
(0.00430116 -0.00200004 -0 0.00430117 -0 0.00430117)
(0.00430122 -0.00200007 -0 0.00430123 -0 0.00430122)
(0.00430109 -0.002 -0 0.00430108 -0 0.00430108)
(0.00424927 -0.00197591 -0 0.00424928 -0 0.00424927)
(0.00424931 -0.00197594 -0 0.00424933 -0 0.00424932)
(0.00424938 -0.00197596 -0 0.00424937 -0 0.00424938)
(0.00424926 -0.0019759 -0 0.00424924 -0 0.00424925)
(0.00419724 -0.00195172 -0 0.00419726 -0 0.00419725)
(0.00419728 -0.00195174 -0 0.0041973 -0 0.00419729)
(0.00419735 -0.00195176 -0 0.00419733 -0 0.00419734)
(0.00419724 -0.00195171 -0 0.00419722 -0 0.00419723)
(0.00414517 -0.00192752 -0 0.00414522 -0 0.00414519)
(0.0041452 -0.00192753 -0 0.00414524 -0 0.00414522)
(0.0041453 -0.00192755 -0 0.00414524 -0 0.00414527)
(0.00414521 -0.00192751 -0 0.00414517 -0 0.00414519)
(0.00409312 -0.00190332 -0 0.0040932 -0 0.00409316)
(0.00409316 -0.00190333 -0 0.0040932 -0 0.00409318)
(0.00409327 -0.00190335 -0 0.00409319 -0 0.00409323)
(0.00409319 -0.00190332 -0 0.00409315 -0 0.00409317)
(0.004041 -0.00187536 -0 0.00404107 -0 0.00404104)
(0.00404103 -0.00187522 -0 0.00404107 -0 0.00404105)
(0.00404113 -0.00187514 -0 0.00404106 -0 0.00404109)
(0.00404106 -0.00187452 -0 0.00404103 -0 0.00404105)
(0.00398865 -0.00184743 -0 0.00398871 -0 0.00398868)
(0.00398867 -0.00184727 -0 0.00398871 -0 0.00398869)
(0.00398876 -0.0018472 -0 0.0039887 -0 0.00398873)
(0.00398869 -0.00184684 -0 0.00398866 -0 0.00398867)
(0.00393603 -0.00181993 -0 0.00393607 -0 0.00393605)
(0.00393605 -0.00181974 -0 0.00393608 -0 0.00393606)
(0.00393611 -0.00181966 -0 0.00393608 -0 0.0039361)
(0.00393605 -0.00181924 -0 0.00393602 -0 0.00393604)
(0.00388315 -0.00179194 -0 0.00388317 -0 0.00388316)
(0.00388316 -0.00179174 -0 0.00388318 -0 0.00388317)
(0.00388321 -0.00179164 -0 0.00388319 -0 0.0038832)
(0.00388315 -0.00179119 -0 0.00388312 -0 0.00388314)
(0.00383 -0.00176347 -0 0.00383001 -0 0.00383)
(0.00383001 -0.00176327 -0 0.00383003 -0 0.00383002)
(0.00383005 -0.00176316 -0 0.00383004 -0 0.00383004)
(0.00382998 -0.00176269 -0 0.00382997 -0 0.00382998)
(0.00377659 -0.00173449 -0 0.00377659 -0 0.00377659)
(0.0037766 -0.0017343 -0 0.00377661 -0 0.0037766)
(0.00377663 -0.00173419 -0 0.00377663 -0 0.00377663)
(0.00377656 -0.00173371 -0 0.00377655 -0 0.00377656)
(0.00372293 -0.00170502 -0 0.00372291 -0 0.00372292)
(0.00372293 -0.00170485 -0 0.00372294 -0 0.00372293)
(0.00372295 -0.00170474 -0 0.00372297 -0 0.00372296)
(0.00372289 -0.00170425 -0 0.00372288 -0 0.00372288)
(0.003669 -0.00167506 -0 0.00366898 -0 0.00366899)
(0.003669 -0.00167491 -0 0.00366901 -0 0.00366901)
(0.00366902 -0.0016748 -0 0.00366904 -0 0.00366903)
(0.00366896 -0.0016743 -0 0.00366896 -0 0.00366896)
(0.00361482 -0.00164459 -0 0.0036148 -0 0.00361481)
(0.00361483 -0.00164446 -0 0.00361483 -0 0.00361483)
(0.00361484 -0.00164436 -0 0.00361486 -0 0.00361485)
(0.00361478 -0.00164388 -0 0.00361478 -0 0.00361478)
(0.00356039 -0.0016136 -0 0.00356037 -0 0.00356038)
(0.0035604 -0.00161353 -0 0.00356039 -0 0.0035604)
(0.00356041 -0.00161342 -0 0.00356044 -0 0.00356042)
(0.00356035 -0.00161296 -0 0.00356035 -0 0.00356035)
(0.00350572 -0.00158215 -0 0.00350569 -0 0.00350571)
(0.00350573 -0.00158209 -0 0.00350572 -0 0.00350572)
(0.00350574 -0.00158199 -0 0.00350576 -0 0.00350575)
(0.00350567 -0.00158155 -0 0.00350568 -0 0.00350568)
(0.00345081 -0.00155019 -0 0.00345079 -0 0.0034508)
(0.00345082 -0.00155015 -0 0.00345081 -0 0.00345082)
(0.00345083 -0.00155006 -0 0.00345086 -0 0.00345084)
(0.00345077 -0.00154965 -0 0.00345078 -0 0.00345078)
(0.00339568 -0.00151773 -0 0.00339566 -0 0.00339567)
(0.0033957 -0.00151771 -0 0.00339568 -0 0.00339569)
(0.0033957 -0.00151764 -0 0.00339573 -0 0.00339572)
(0.00339564 -0.00151726 -0 0.00339566 -0 0.00339565)
(0.00334035 -0.00148477 -0 0.00334033 -0 0.00334034)
(0.00334037 -0.00148476 -0 0.00334035 -0 0.00334036)
(0.00334037 -0.00148471 -0 0.0033404 -0 0.00334038)
(0.00334031 -0.00148436 -0 0.00334033 -0 0.00334032)
(0.00328484 -0.00145132 -0 0.00328481 -0 0.00328483)
(0.00328485 -0.00145131 -0 0.00328483 -0 0.00328484)
(0.00328486 -0.00145127 -0 0.00328488 -0 0.00328487)
(0.0032848 -0.00145096 -0 0.00328483 -0 0.00328481)
(0.00322917 -0.00141735 -0 0.00322914 -0 0.00322916)
(0.00322918 -0.00141736 -0 0.00322916 -0 0.00322917)
(0.00322919 -0.00141733 -0 0.00322921 -0 0.0032292)
(0.00322914 -0.00141706 -0 0.00322916 -0 0.00322915)
(0.00317337 -0.00138287 -0 0.00317335 -0 0.00317336)
(0.00317338 -0.00138289 -0 0.00317336 -0 0.00317337)
(0.00317339 -0.00138287 -0 0.00317341 -0 0.0031734)
(0.00317334 -0.00138264 -0 0.00317336 -0 0.00317335)
(0.00311748 -0.00134787 -0 0.00311746 -0 0.00311747)
(0.00311749 -0.0013479 -0 0.00311747 -0 0.00311748)
(0.0031175 -0.00134788 -0 0.00311751 -0 0.0031175)
(0.00311745 -0.0013477 -0 0.00311747 -0 0.00311746)
(0.00306153 -0.00131236 -0 0.00306152 -0 0.00306152)
(0.00306154 -0.00131238 -0 0.00306152 -0 0.00306153)
(0.00306155 -0.00131238 -0 0.00306156 -0 0.00306156)
(0.00306151 -0.00131224 -0 0.00306153 -0 0.00306152)
(0.00300558 -0.00127631 -0 0.00300556 -0 0.00300557)
(0.00300559 -0.00127634 -0 0.00300557 -0 0.00300558)
(0.00300559 -0.00127635 -0 0.00300561 -0 0.0030056)
(0.00300556 -0.00127624 -0 0.00300558 -0 0.00300557)
(0.00294967 -0.00123973 -0 0.00294965 -0 0.00294966)
(0.00294968 -0.00123977 -0 0.00294966 -0 0.00294967)
(0.00294968 -0.00123977 -0 0.00294969 -0 0.00294969)
(0.00294965 -0.00123971 -0 0.00294967 -0 0.00294966)
(0.00289385 -0.00120262 -0 0.00289384 -0 0.00289385)
(0.00289386 -0.00120265 -0 0.00289384 -0 0.00289385)
(0.00289386 -0.00120267 -0 0.00289388 -0 0.00289387)
(0.00289384 -0.00120264 -0 0.00289386 -0 0.00289385)
(0.0028382 -0.00116495 -0 0.00283819 -0 0.0028382)
(0.00283821 -0.001165 -0 0.00283819 -0 0.0028382)
(0.00283821 -0.00116501 -0 0.00283822 -0 0.00283821)
(0.00283819 -0.00116502 -0 0.0028382 -0 0.0028382)
(0.00278278 -0.00112674 -0 0.00278277 -0 0.00278278)
(0.00278279 -0.00112678 -0 0.00278277 -0 0.00278278)
(0.00278279 -0.00112681 -0 0.0027828 -0 0.00278279)
(0.00278277 -0.00112685 -0 0.00278278 -0 0.00278278)
(0.00272767 -0.00108797 -0 0.00272766 -0 0.00272767)
(0.00272767 -0.00108803 -0 0.00272766 -0 0.00272767)
(0.00272767 -0.00108804 -0 0.00272768 -0 0.00272768)
(0.00272766 -0.00108812 -0 0.00272767 -0 0.00272767)
(0.00267295 -0.00104863 -0 0.00267295 -0 0.00267295)
(0.00267296 -0.00104868 -0 0.00267294 -0 0.00267295)
(0.00267295 -0.00104872 -0 0.00267296 -0 0.00267296)
(0.00267295 -0.00104883 -0 0.00267296 -0 0.00267295)
(0.00261873 -0.00100872 -0 0.00261872 -0 0.00261872)
(0.00261873 -0.0010088 -0 0.00261872 -0 0.00261872)
(0.00261873 -0.0010088 -0 0.00261873 -0 0.00261873)
(0.00261873 -0.00100897 -0 0.00261874 -0 0.00261873)
(0.0025651 -0.000968243 -0 0.00256509 -0 0.00256509)
(0.0025651 -0.000968325 -0 0.00256509 -0 0.00256509)
(0.00256509 -0.000968338 -0 0.0025651 -0 0.0025651)
(0.0025651 -0.000968527 -0 0.00256511 -0 0.0025651)
(0.00251218 -0.000927185 -0 0.00251217 -0 0.00251217)
(0.00251218 -0.000927271 -0 0.00251217 -0 0.00251217)
(0.00251217 -0.000927282 -0 0.00251218 -0 0.00251218)
(0.00251218 -0.000927502 -0 0.00251219 -0 0.00251219)
(0.00246009 -0.000885542 -0 0.00246008 -0 0.00246009)
(0.00246009 -0.000885629 -0 0.00246009 -0 0.00246009)
(0.00246009 -0.000885651 -0 0.00246009 -0 0.00246009)
(0.0024601 -0.00088588 -0 0.00246011 -0 0.0024601)
(0.00240898 -0.000843305 -0 0.00240897 -0 0.00240897)
(0.00240898 -0.000843388 -0 0.00240897 -0 0.00240898)
(0.00240897 -0.000843414 -0 0.00240898 -0 0.00240897)
(0.00240899 -0.000843665 -0 0.00240899 -0 0.00240899)
(0.00235898 -0.000800469 -0 0.00235897 -0 0.00235898)
(0.00235898 -0.000800548 -0 0.00235898 -0 0.00235898)
(0.00235897 -0.000800589 -0 0.00235898 -0 0.00235898)
(0.002359 -0.000800838 -0 0.002359 -0 0.002359)
(0.00231026 -0.000757052 -0 0.00231025 -0 0.00231026)
(0.00231026 -0.000757089 -0 0.00231026 -0 0.00231026)
(0.00231025 -0.00075716 -0 0.00231026 -0 0.00231025)
(0.00231028 -0.000757397 -0 0.00231028 -0 0.00231028)
(0.00226298 -0.00071299 -0 0.00226298 -0 0.00226298)
(0.00226298 -0.000713018 -0 0.00226298 -0 0.00226298)
(0.00226298 -0.000713127 -0 0.00226298 -0 0.00226298)
(0.00226301 -0.000713335 -0 0.00226301 -0 0.00226301)
(0.00221733 -0.000668316 -0 0.00221733 -0 0.00221733)
(0.00221733 -0.000668339 -0 0.00221733 -0 0.00221733)
(0.00221733 -0.000668448 -0 0.00221733 -0 0.00221733)
(0.00221736 -0.000668655 -0 0.00221736 -0 0.00221736)
(0.0021735 -0.000623012 -0 0.0021735 -0 0.0021735)
(0.0021735 -0.000623054 -0 0.0021735 -0 0.0021735)
(0.0021735 -0.000623134 -0 0.0021735 -0 0.0021735)
(0.00217353 -0.000623344 -0 0.00217352 -0 0.00217352)
(0.00213168 -0.000577069 -0 0.00213168 -0 0.00213168)
(0.00213168 -0.000577072 -0 0.00213168 -0 0.00213168)
(0.00213168 -0.0005772 -0 0.00213168 -0 0.00213168)
(0.00213171 -0.000577393 -0 0.00213171 -0 0.00213171)
(0.00209209 -0.000530481 -0 0.00209209 -0 0.00209209)
(0.00209208 -0.000530487 -0 0.00209209 -0 0.00209209)
(0.00209209 -0.000530603 -0 0.00209209 -0 0.00209209)
(0.00209212 -0.000530796 -0 0.00209212 -0 0.00209212)
(0.00205494 -0.000483238 -0 0.00205495 -0 0.00205495)
(0.00205494 -0.000483239 -0 0.00205494 -0 0.00205494)
(0.00205495 -0.00048335 -0 0.00205494 -0 0.00205494)
(0.00205498 -0.000483542 -0 0.00205497 -0 0.00205497)
(0.00202047 -0.000435334 -0 0.00202048 -0 0.00202047)
(0.00202046 -0.000435344 -0 0.00202047 -0 0.00202046)
(0.00202047 -0.000435422 -0 0.00202046 -0 0.00202047)
(0.0020205 -0.000435623 -0 0.0020205 -0 0.0020205)
(0.0019889 -0.000386756 -0 0.0019889 -0 0.0019889)
(0.00198888 -0.00038675 -0 0.00198889 -0 0.00198889)
(0.00198889 -0.000386852 -0 0.00198889 -0 0.00198889)
(0.00198893 -0.00038702 -0 0.00198892 -0 0.00198893)
(0.00196046 -0.000337482 -0 0.00196046 -0 0.00196046)
(0.00196044 -0.000337519 -0 0.00196045 -0 0.00196045)
(0.00196045 -0.000337561 -0 0.00196045 -0 0.00196045)
(0.00196049 -0.000337739 -0 0.00196048 -0 0.00196049)
(0.00193539 -0.000287556 -0 0.0019354 -0 0.00193539)
(0.00193538 -0.00028754 -0 0.00193539 -0 0.00193538)
(0.00193539 -0.00028762 -0 0.00193538 -0 0.00193538)
(0.00193543 -0.000287753 -0 0.00193542 -0 0.00193542)
(0.00191393 -0.000236898 -0 0.00191394 -0 0.00191393)
(0.00191392 -0.000236894 -0 0.00191393 -0 0.00191392)
(0.00191393 -0.000236949 -0 0.00191392 -0 0.00191392)
(0.00191397 -0.000237069 -0 0.00191396 -0 0.00191396)
(0.00189632 -0.000185522 -0 0.00189632 -0 0.00189632)
(0.0018963 -0.000185543 -0 0.00189631 -0 0.00189631)
(0.00189631 -0.000185565 -0 0.00189631 -0 0.00189631)
(0.00189636 -0.00018567 -0 0.00189634 -0 0.00189635)
(0.00188278 -0.000133449 -0 0.00188278 -0 0.00188278)
(0.00188276 -0.000133438 -0 0.00188277 -0 0.00188277)
(0.00188277 -0.000133476 -0 0.00188277 -0 0.00188277)
(0.00188282 -0.000133543 -0 0.0018828 -0 0.00188281)
(0.00187354 -8.06237e-05 -0 0.00187354 -0 0.00187354)
(0.00187352 -8.06241e-05 -0 0.00187354 -0 0.00187353)
(0.00187353 -8.06392e-05 -0 0.00187353 -0 0.00187353)
(0.00187358 -8.06846e-05 -0 0.00187356 -0 0.00187357)
(0.00186881 -2.70152e-05 -0 0.00186882 -0 0.00186882)
(0.0018688 -2.70183e-05 -0 0.00186881 -0 0.00186881)
(0.00186881 -2.70225e-05 -0 0.0018688 -0 0.00186881)
(0.00186885 -2.70367e-05 -0 0.00186884 -0 0.00186885)
)
;

boundaryField
{
    inlet
    {
        type            cyclic;
    }
    outlet
    {
        type            cyclic;
    }
    fixedWalls-bottom
    {
        type            kqRWallFunction;
        value           nonuniform List<symmTensor> 4((2.60894e-06 -0 -0 2.60894e-06 -0 2.60894e-06) (2.60903e-06 -0 -0 2.60903e-06 -0 2.60903e-06) (2.60885e-06 -0 -0 2.60885e-06 -0 2.60885e-06) (2.60885e-06 -0 -0 2.60885e-06 -0 2.60885e-06));
    }
    fixedWalls-top
    {
        type            symmetry;
    }
    frontAndBack
    {
        type            empty;
    }
}


// ************************************************************************* //
