/*--------------------------------*- C++ -*----------------------------------*\
  =========                 |
  \\      /  F ield         | OpenFOAM: The Open Source CFD Toolbox
   \\    /   O peration     | Website:  https://openfoam.org
    \\  /    A nd           | Version:  10
     \\/     M anipulation  |
\*---------------------------------------------------------------------------*/
FoamFile
{
    format      ascii;
    class       volVectorField;
    location    "5053";
    object      U;
}
// * * * * * * * * * * * * * * * * * * * * * * * * * * * * * * * * * * * * * //

dimensions      [0 1 -1 0 0 0 0];

internalField   nonuniform List<vector> 
400
(
(0.0558217 -5.43138e-10 0)
(0.055822 3.83245e-11 0)
(0.0558214 5.39618e-10 0)
(0.0558211 -3.82925e-11 0)
(0.167569 -8.83249e-09 0)
(0.16757 2.29461e-09 0)
(0.167568 8.82745e-09 0)
(0.167567 -2.29454e-09 0)
(0.277453 -2.61343e-08 0)
(0.277454 8.38881e-09 0)
(0.277451 2.61288e-08 0)
(0.27745 -8.38855e-09 0)
(0.375569 -4.97259e-08 0)
(0.37557 1.91695e-08 0)
(0.375567 4.9721e-08 0)
(0.375565 -1.91691e-08 0)
(0.453663 -7.32436e-08 0)
(0.453663 3.12136e-08 0)
(0.45366 7.32388e-08 0)
(0.453659 -3.1213e-08 0)
(0.514099 -9.27277e-08 0)
(0.514099 4.35831e-08 0)
(0.514096 9.27231e-08 0)
(0.514095 -4.35825e-08 0)
(0.562029 -1.06268e-07 0)
(0.562029 5.38916e-08 0)
(0.562027 1.06263e-07 0)
(0.562027 -5.38909e-08 0)
(0.601054 -1.137e-07 0)
(0.601054 6.25357e-08 0)
(0.601053 1.13696e-07 0)
(0.601053 -6.2535e-08 0)
(0.633587 -1.1558e-07 0)
(0.633586 7.04266e-08 0)
(0.633585 1.15576e-07 0)
(0.633586 -7.04259e-08 0)
(0.661288 -1.12816e-07 0)
(0.661287 7.86458e-08 0)
(0.661286 1.12812e-07 0)
(0.661288 -7.8645e-08 0)
(0.685313 -1.06158e-07 0)
(0.685312 8.8032e-08 0)
(0.685311 1.06154e-07 0)
(0.685313 -8.80312e-08 0)
(0.70648 -9.57319e-08 0)
(0.706478 9.88565e-08 0)
(0.706478 9.57279e-08 0)
(0.706481 -9.88556e-08 0)
(0.725379 -8.07448e-08 0)
(0.725377 1.10451e-07 0)
(0.725377 8.07409e-08 0)
(0.725381 -1.1045e-07 0)
(0.742446 -5.98196e-08 0)
(0.742444 1.21112e-07 0)
(0.742444 5.9816e-08 0)
(0.742448 -1.21111e-07 0)
(0.758007 -3.29387e-08 0)
(0.758005 1.29135e-07 0)
(0.758006 3.29348e-08 0)
(0.75801 -1.29134e-07 0)
(0.772317 -4.71895e-09 0)
(0.772315 1.35191e-07 0)
(0.772316 4.71503e-09 0)
(0.77232 -1.3519e-07 0)
(0.785577 2.117e-08 0)
(0.785576 1.38487e-07 0)
(0.785577 -2.11735e-08 0)
(0.78558 -1.38486e-07 0)
(0.797941 4.0298e-08 0)
(0.797941 1.40439e-07 0)
(0.797941 -4.03016e-08 0)
(0.797943 -1.40438e-07 0)
(0.809524 5.16142e-08 0)
(0.809524 1.40465e-07 0)
(0.809525 -5.16177e-08 0)
(0.809525 -1.40464e-07 0)
(0.82042 5.62401e-08 0)
(0.82042 1.38158e-07 0)
(0.820421 -5.62435e-08 0)
(0.820421 -1.38157e-07 0)
(0.830707 5.50846e-08 0)
(0.830707 1.3353e-07 0)
(0.830708 -5.50879e-08 0)
(0.830706 -1.33529e-07 0)
(0.840449 4.8998e-08 0)
(0.840449 1.27009e-07 0)
(0.84045 -4.90013e-08 0)
(0.840448 -1.27008e-07 0)
(0.8497 3.89289e-08 0)
(0.849701 1.1945e-07 0)
(0.849701 -3.89321e-08 0)
(0.849699 -1.19449e-07 0)
(0.858507 2.58315e-08 0)
(0.858508 1.12112e-07 0)
(0.858508 -2.58346e-08 0)
(0.858506 -1.12111e-07 0)
(0.86691 1.07141e-08 0)
(0.86691 1.06116e-07 0)
(0.86691 -1.07174e-08 0)
(0.866908 -1.06115e-07 0)
(0.874945 -3.39596e-09 0)
(0.874946 1.00237e-07 0)
(0.874946 3.39274e-09 0)
(0.874944 -1.00236e-07 0)
(0.882648 -1.50711e-08 0)
(0.882649 9.46135e-08 0)
(0.882649 1.50682e-08 0)
(0.882647 -9.46123e-08 0)
(0.890048 -2.22576e-08 0)
(0.890049 8.80215e-08 0)
(0.890049 2.22546e-08 0)
(0.890048 -8.80204e-08 0)
(0.89717 -2.5302e-08 0)
(0.89717 8.11846e-08 0)
(0.897171 2.5299e-08 0)
(0.89717 -8.11834e-08 0)
(0.904034 -2.55028e-08 0)
(0.904034 7.50553e-08 0)
(0.904035 2.54998e-08 0)
(0.904034 -7.50541e-08 0)
(0.910659 -2.41554e-08 0)
(0.910659 7.00789e-08 0)
(0.910659 2.41525e-08 0)
(0.910659 -7.00778e-08 0)
(0.917061 -2.22057e-08 0)
(0.917061 6.62328e-08 0)
(0.917061 2.22029e-08 0)
(0.917061 -6.62317e-08 0)
(0.923255 -2.02047e-08 0)
(0.923255 6.3272e-08 0)
(0.923255 2.02019e-08 0)
(0.923255 -6.32709e-08 0)
(0.929254 -1.83774e-08 0)
(0.929254 6.0921e-08 0)
(0.929254 1.83746e-08 0)
(0.929254 -6.09198e-08 0)
(0.93507 -1.67389e-08 0)
(0.93507 5.8969e-08 0)
(0.93507 1.67363e-08 0)
(0.93507 -5.89678e-08 0)
(0.940715 -1.52096e-08 0)
(0.940715 5.72908e-08 0)
(0.940715 1.5207e-08 0)
(0.940715 -5.72896e-08 0)
(0.946198 -1.37029e-08 0)
(0.946198 5.58291e-08 0)
(0.946198 1.37003e-08 0)
(0.946198 -5.58279e-08 0)
(0.951528 -1.21789e-08 0)
(0.951528 5.45671e-08 0)
(0.951529 1.21764e-08 0)
(0.951529 -5.4566e-08 0)
(0.956716 -1.06625e-08 0)
(0.956716 5.35169e-08 0)
(0.956716 1.066e-08 0)
(0.956716 -5.35157e-08 0)
(0.961767 -9.22985e-09 0)
(0.961767 5.27257e-08 0)
(0.961767 9.22738e-09 0)
(0.961767 -5.27245e-08 0)
(0.96669 -7.96477e-09 0)
(0.96669 5.22934e-08 0)
(0.96669 7.96234e-09 0)
(0.96669 -5.22922e-08 0)
(0.971489 -6.88751e-09 0)
(0.971489 5.23783e-08 0)
(0.971489 6.88513e-09 0)
(0.971489 -5.23771e-08 0)
(0.976171 -5.86939e-09 0)
(0.976171 5.31594e-08 0)
(0.976171 5.86704e-09 0)
(0.976171 -5.31582e-08 0)
(0.980739 -4.57152e-09 0)
(0.980738 5.47273e-08 0)
(0.980738 4.56919e-09 0)
(0.980739 -5.47261e-08 0)
(0.985194 -2.48079e-09 0)
(0.985194 5.6902e-08 0)
(0.985194 2.4785e-09 0)
(0.985194 -5.69008e-08 0)
(0.989538 8.72641e-10 0)
(0.989538 5.90162e-08 0)
(0.989538 -8.74857e-10 0)
(0.989538 -5.9015e-08 0)
(0.99377 5.45598e-09 0)
(0.99377 5.97862e-08 0)
(0.99377 -5.45814e-09 0)
(0.99377 -5.97852e-08 0)
(0.997888 1.00658e-08 0)
(0.997888 5.7452e-08 0)
(0.997889 -1.00681e-08 0)
(0.997888 -5.74509e-08 0)
(1.00189 1.16563e-08 0)
(1.00189 5.03713e-08 0)
(1.00189 -1.16587e-08 0)
(1.00189 -5.03698e-08 0)
(1.00578 5.21733e-09 0)
(1.00578 3.80396e-08 0)
(1.00578 -5.21939e-09 0)
(1.00577 -3.80375e-08 0)
(1.00955 -1.44903e-08 0)
(1.00955 2.19089e-08 0)
(1.00955 1.44891e-08 0)
(1.00954 -2.19072e-08 0)
(1.01321 -4.76879e-08 0)
(1.01321 4.62019e-09 0)
(1.01321 4.76855e-08 0)
(1.0132 -4.62099e-09 0)
(1.01678 -8.29572e-08 0)
(1.01678 -1.30701e-08 0)
(1.01678 8.29545e-08 0)
(1.01678 1.30704e-08 0)
(1.02028 -1.16379e-07 0)
(1.02028 -2.88882e-08 0)
(1.02028 1.16378e-07 0)
(1.02028 2.88905e-08 0)
(1.02371 -1.37107e-07 0)
(1.02371 -4.36535e-08 0)
(1.02371 1.37105e-07 0)
(1.02371 4.3655e-08 0)
(1.02707 -1.4832e-07 0)
(1.02707 -5.64189e-08 0)
(1.02707 1.48318e-07 0)
(1.02707 5.642e-08 0)
(1.03037 -1.52804e-07 0)
(1.03037 -6.66009e-08 0)
(1.03037 1.52802e-07 0)
(1.03037 6.66021e-08 0)
(1.03361 -1.52123e-07 0)
(1.03361 -7.41022e-08 0)
(1.03361 1.52121e-07 0)
(1.03361 7.41034e-08 0)
(1.0368 -1.47403e-07 0)
(1.0368 -7.91299e-08 0)
(1.0368 1.47402e-07 0)
(1.0368 7.91312e-08 0)
(1.03992 -1.39643e-07 0)
(1.03992 -8.19653e-08 0)
(1.03992 1.39641e-07 0)
(1.03992 8.19665e-08 0)
(1.043 -1.29715e-07 0)
(1.043 -8.27636e-08 0)
(1.043 1.29713e-07 0)
(1.043 8.27648e-08 0)
(1.04602 -1.18237e-07 0)
(1.04602 -8.13443e-08 0)
(1.04602 1.18235e-07 0)
(1.04602 8.13455e-08 0)
(1.04899 -1.05804e-07 0)
(1.04899 -7.77882e-08 0)
(1.04899 1.05802e-07 0)
(1.04899 7.77894e-08 0)
(1.05191 -9.28527e-08 0)
(1.05191 -7.20081e-08 0)
(1.05191 9.2851e-08 0)
(1.05191 7.20093e-08 0)
(1.05479 -7.98992e-08 0)
(1.05479 -6.43729e-08 0)
(1.05479 7.98975e-08 0)
(1.05479 6.4374e-08 0)
(1.05762 -6.74349e-08 0)
(1.05762 -5.53199e-08 0)
(1.05762 6.74333e-08 0)
(1.05762 5.53211e-08 0)
(1.0604 -5.58148e-08 0)
(1.0604 -4.54167e-08 0)
(1.0604 5.58132e-08 0)
(1.0604 4.54178e-08 0)
(1.06314 -4.51848e-08 0)
(1.06314 -3.5046e-08 0)
(1.06314 4.51832e-08 0)
(1.06314 3.50471e-08 0)
(1.06583 -3.55821e-08 0)
(1.06583 -2.46516e-08 0)
(1.06583 3.55806e-08 0)
(1.06584 2.46527e-08 0)
(1.06848 -2.69287e-08 0)
(1.06848 -1.43788e-08 0)
(1.06848 2.69272e-08 0)
(1.06848 1.43799e-08 0)
(1.07109 -1.91321e-08 0)
(1.07109 -4.32853e-09 0)
(1.07109 1.91306e-08 0)
(1.07109 4.32959e-09 0)
(1.07364 -1.20617e-08 0)
(1.07364 5.41015e-09 0)
(1.07364 1.20602e-08 0)
(1.07365 -5.40911e-09 0)
(1.07616 -5.54106e-09 0)
(1.07616 1.47212e-08 0)
(1.07616 5.53968e-09 0)
(1.07616 -1.47201e-08 0)
(1.07862 6.26885e-10 0)
(1.07862 2.35165e-08 0)
(1.07862 -6.28231e-10 0)
(1.07862 -2.35155e-08 0)
(1.08104 6.55532e-09 0)
(1.08104 3.17387e-08 0)
(1.08104 -6.55664e-09 0)
(1.08104 -3.17377e-08 0)
(1.08341 1.21499e-08 0)
(1.08341 3.94143e-08 0)
(1.0834 -1.21512e-08 0)
(1.08341 -3.94134e-08 0)
(1.08572 1.75412e-08 0)
(1.08572 4.65126e-08 0)
(1.08572 -1.75425e-08 0)
(1.08572 -4.65116e-08 0)
(1.08799 2.22426e-08 0)
(1.08799 5.30816e-08 0)
(1.08799 -2.22438e-08 0)
(1.08799 -5.30806e-08 0)
(1.0902 2.67112e-08 0)
(1.0902 5.90365e-08 0)
(1.0902 -2.67124e-08 0)
(1.0902 -5.90356e-08 0)
(1.09235 3.06903e-08 0)
(1.09235 6.44078e-08 0)
(1.09235 -3.06915e-08 0)
(1.09235 -6.44069e-08 0)
(1.09444 3.44986e-08 0)
(1.09444 6.91189e-08 0)
(1.09444 -3.44998e-08 0)
(1.09444 -6.9118e-08 0)
(1.09648 3.82359e-08 0)
(1.09648 7.32432e-08 0)
(1.09648 -3.82371e-08 0)
(1.09648 -7.32423e-08 0)
(1.09844 4.17767e-08 0)
(1.09844 7.64944e-08 0)
(1.09844 -4.17779e-08 0)
(1.09844 -7.64934e-08 0)
(1.10034 4.51184e-08 0)
(1.10034 7.87599e-08 0)
(1.10034 -4.51196e-08 0)
(1.10034 -7.87589e-08 0)
(1.10217 4.77634e-08 0)
(1.10217 7.94294e-08 0)
(1.10217 -4.77646e-08 0)
(1.10217 -7.94285e-08 0)
(1.10392 4.93703e-08 0)
(1.10392 7.91819e-08 0)
(1.10392 -4.93715e-08 0)
(1.10392 -7.91808e-08 0)
(1.10559 4.99493e-08 0)
(1.10559 7.79856e-08 0)
(1.10559 -4.99505e-08 0)
(1.10559 -7.79846e-08 0)
(1.10718 5.02299e-08 0)
(1.10718 7.66131e-08 0)
(1.10718 -5.0231e-08 0)
(1.10718 -7.66121e-08 0)
(1.10868 4.97112e-08 0)
(1.10868 7.53911e-08 0)
(1.10868 -4.97123e-08 0)
(1.10868 -7.539e-08 0)
(1.11008 4.88693e-08 0)
(1.11008 7.38066e-08 0)
(1.11008 -4.88704e-08 0)
(1.11008 -7.38055e-08 0)
(1.11139 4.65737e-08 0)
(1.11139 7.14548e-08 0)
(1.11139 -4.65748e-08 0)
(1.11139 -7.14538e-08 0)
(1.11259 4.30998e-08 0)
(1.11259 6.75669e-08 0)
(1.11259 -4.31008e-08 0)
(1.11259 -6.75659e-08 0)
(1.11368 3.85457e-08 0)
(1.11368 6.23976e-08 0)
(1.11368 -3.85466e-08 0)
(1.11368 -6.23967e-08 0)
(1.11466 3.4004e-08 0)
(1.11466 5.58869e-08 0)
(1.11466 -3.40049e-08 0)
(1.11466 -5.58861e-08 0)
(1.11552 2.87983e-08 0)
(1.11552 4.86896e-08 0)
(1.11552 -2.87991e-08 0)
(1.11552 -4.86888e-08 0)
(1.11625 2.37312e-08 0)
(1.11625 4.0908e-08 0)
(1.11625 -2.37319e-08 0)
(1.11625 -4.09075e-08 0)
(1.11684 1.86055e-08 0)
(1.11684 3.25805e-08 0)
(1.11684 -1.86061e-08 0)
(1.11684 -3.25799e-08 0)
(1.1173 1.31729e-08 0)
(1.1173 2.36232e-08 0)
(1.1173 -1.31734e-08 0)
(1.1173 -2.36226e-08 0)
(1.11761 8.06909e-09 0)
(1.11761 1.43126e-08 0)
(1.11761 -8.06928e-09 0)
(1.11761 -1.43126e-08 0)
(1.11777 2.76626e-09 0)
(1.11777 4.809e-09 0)
(1.11777 -2.76624e-09 0)
(1.11777 -4.80907e-09 0)
)
;

boundaryField
{
    inlet
    {
        type            cyclic;
    }
    outlet
    {
        type            cyclic;
    }
    fixedWalls-bottom
    {
        type            noSlip;
    }
    fixedWalls-top
    {
        type            symmetry;
    }
    frontAndBack
    {
        type            empty;
    }
}


// ************************************************************************* //
