/*--------------------------------*- C++ -*----------------------------------*\
  =========                 |
  \\      /  F ield         | OpenFOAM: The Open Source CFD Toolbox
   \\    /   O peration     | Website:  https://openfoam.org
    \\  /    A nd           | Version:  10
     \\/     M anipulation  |
\*---------------------------------------------------------------------------*/
FoamFile
{
    format      ascii;
    class       volScalarField;
    location    "241";
    object      k;
}
// * * * * * * * * * * * * * * * * * * * * * * * * * * * * * * * * * * * * * //

dimensions      [0 2 -2 0 0 0 0];

internalField   nonuniform List<scalar> 
200
(
1.23414e-07
1.23431e-07
1.2336e-07
1.23328e-07
3.72847e-06
3.72901e-06
3.72684e-06
3.72589e-06
2.69712e-05
2.69751e-05
2.69594e-05
2.69525e-05
0.000100259
0.000100272
0.000100214
0.000100189
0.000263674
0.000263707
0.000263551
0.000263486
0.000560062
0.000560117
0.000559779
0.000559651
0.0010209
0.00102096
0.00102033
0.00102012
0.00164702
0.00164703
0.00164601
0.00164573
0.00239848
0.00239839
0.00239693
0.00239661
0.00320697
0.00320675
0.00320489
0.0032046
0.00400252
0.00400224
0.00400013
0.00399992
0.00473499
0.00473471
0.00473253
0.00473247
0.00538725
0.00538681
0.00538457
0.00538484
0.00595017
0.0059495
0.00594726
0.00594803
0.00642146
0.0064207
0.00641842
0.00641992
0.00680438
0.00680365
0.00680128
0.00680367
0.00710554
0.00710483
0.00710234
0.00710562
0.00733302
0.00733223
0.00732963
0.00733387
0.00749504
0.00749429
0.00749165
0.00749684
0.00759996
0.0075993
0.00759675
0.00760284
0.0076554
0.0076549
0.00765254
0.00765948
0.00766835
0.00766812
0.00766601
0.00767372
0.00764481
0.00764533
0.00764345
0.00765181
0.00758963
0.00759063
0.00758881
0.00759826
0.00750652
0.00750774
0.00750598
0.00751606
0.00739801
0.0073992
0.00739742
0.00740803
0.00726621
0.00726723
0.00726537
0.00727622
0.00711312
0.00711385
0.00711189
0.0071226
0.00694057
0.00694094
0.0069389
0.00694902
0.00675029
0.00675013
0.00674802
0.00675708
0.00654307
0.0065423
0.00654067
0.00654817
0.0063194
0.00631895
0.00631704
0.0063235
0.00608035
0.0060801
0.00607822
0.00608401
0.00582678
0.00582663
0.0058251
0.00583047
0.00555934
0.00555957
0.00555846
0.00556365
0.00527967
0.00528023
0.00527906
0.00528436
0.00498823
0.00498948
0.00498765
0.00499356
0.00468672
0.00468825
0.00468608
0.00469211
0.00437642
0.00437792
0.00437559
0.00438136
0.00405896
0.00406019
0.00405765
0.00406293
0.00373688
0.00373711
0.00373384
0.00373877
0.00341064
0.00341069
0.00340707
0.00341156
0.00308428
0.00308448
0.00308079
0.00308481
0.00276326
0.00276326
0.00275964
0.00276343
0.0024528
0.00245312
0.0024498
0.00245394
0.00216179
0.00216214
0.00215918
0.002163
0.00189994
0.00190027
0.00189787
0.00190115
0.00167986
0.00168026
0.00167898
0.00168093
0.00151786
0.00151853
0.00151783
0.00151921
0.00143032
0.00143095
0.00143091
0.001432
)
;

boundaryField
{
    inlet
    {
        type            cyclic;
    }
    outlet
    {
        type            cyclic;
    }
    fixedWalls-bottom
    {
        type            kqRWallFunction;
        value           nonuniform List<scalar> 4(1.23414e-07 1.23431e-07 1.2336e-07 1.23328e-07);
    }
    fixedWalls-top
    {
        type            symmetry;
    }
    frontAndBack
    {
        type            empty;
    }
}


// ************************************************************************* //
