/*--------------------------------*- C++ -*----------------------------------*\
  =========                 |
  \\      /  F ield         | OpenFOAM: The Open Source CFD Toolbox
   \\    /   O peration     | Website:  https://openfoam.org
    \\  /    A nd           | Version:  10
     \\/     M anipulation  |
\*---------------------------------------------------------------------------*/
FoamFile
{
    format      ascii;
    class       volScalarField;
    location    "241";
    object      nut;
}
// * * * * * * * * * * * * * * * * * * * * * * * * * * * * * * * * * * * * * //

dimensions      [0 2 -1 0 0 0 0];

internalField   nonuniform List<scalar> 
200
(
3.44708e-11
3.44758e-11
3.44557e-11
3.44469e-11
6.13882e-09
6.13971e-09
6.13613e-09
6.13456e-09
1.33495e-07
1.33514e-07
1.33436e-07
1.33402e-07
1.06234e-06
1.06249e-06
1.06187e-06
1.0616e-06
4.90262e-06
4.90334e-06
4.90039e-06
4.89922e-06
1.59887e-05
1.59908e-05
1.59807e-05
1.59772e-05
4.06162e-05
4.06192e-05
4.05912e-05
4.05838e-05
8.50785e-05
8.5074e-05
8.50094e-05
8.49979e-05
0.000153008
0.000152972
0.000152844
0.000152833
0.000244023
0.000243921
0.000243704
0.000243701
0.000354331
0.000354149
0.000353816
0.000353831
0.000464203
0.000464202
0.000463979
0.000463934
0.000580011
0.000580001
0.000579774
0.000579756
0.000702468
0.000702415
0.000702173
0.000702222
0.000829481
0.000829395
0.000829125
0.000829297
0.000958763
0.000958669
0.000958361
0.000958699
0.00108842
0.00108833
0.00108798
0.00108849
0.00121746
0.00121738
0.00121698
0.00121763
0.00134637
0.00134627
0.00134587
0.00134646
0.00147655
0.00147624
0.00147589
0.00147601
0.00160266
0.00160183
0.00160168
0.00160085
0.00171694
0.00171598
0.00171622
0.00171446
0.00181606
0.00182055
0.00182092
0.00182016
0.00189715
0.00190513
0.00190285
0.00191567
0.00197192
0.00198102
0.00197823
0.00199271
0.00203982
0.00204992
0.00204643
0.00206271
0.00209983
0.00211083
0.00210645
0.00212459
0.00215095
0.00216262
0.00215737
0.00217723
0.00219279
0.00220443
0.0021991
0.0022198
0.00222609
0.00223556
0.00223349
0.00225173
0.00225362
0.00225409
0.00226317
0.00227292
0.002267
0.00227375
0.00227585
0.00228635
0.00227095
0.00227943
0.00228019
0.00229165
0.00226654
0.00227588
0.0022761
0.00228835
0.00225297
0.00226361
0.00226283
0.00227668
0.00222913
0.00224305
0.00223905
0.00225721
0.0021907
0.00221484
0.00220087
0.00223081
0.00215066
0.00217524
0.0021615
0.00219232
0.00210259
0.00212598
0.00211342
0.00214429
0.00204754
0.00206536
0.00205611
0.00208661
0.00199056
0.0019886
0.00198808
0.00201906
0.00191498
0.00191171
0.00191057
0.00194218
0.00183009
0.00182674
0.00182474
0.00185674
0.00173783
0.00173438
0.00173165
0.00176384
0.0016392
0.00163628
0.00163284
0.00166544
0.00153732
0.00153564
0.00153105
0.00156366
0.001435
0.00143849
0.001431
0.00146339
0.00133291
0.0013612
0.00134191
0.00137211
0.00126048
0.00129281
0.00127819
0.00130124
0.00122077
0.00125628
0.00125496
0.0012685
)
;

boundaryField
{
    inlet
    {
        type            cyclic;
    }
    outlet
    {
        type            cyclic;
    }
    fixedWalls-bottom
    {
        type            nutkWallFunction;
        Cmu             0.09;
        kappa           0.41;
        E               9.8;
        value           uniform 0;
    }
    fixedWalls-top
    {
        type            symmetry;
    }
    frontAndBack
    {
        type            empty;
    }
}


// ************************************************************************* //
