/*--------------------------------*- C++ -*----------------------------------*\
  =========                 |
  \\      /  F ield         | OpenFOAM: The Open Source CFD Toolbox
   \\    /   O peration     | Website:  https://openfoam.org
    \\  /    A nd           | Version:  10
     \\/     M anipulation  |
\*---------------------------------------------------------------------------*/
FoamFile
{
    format      ascii;
    class       volScalarField;
    location    "241";
    object      omega;
}
// * * * * * * * * * * * * * * * * * * * * * * * * * * * * * * * * * * * * * //

dimensions      [0 0 -1 0 0 0 0];

internalField   nonuniform List<scalar> 
200
(
3580.24
3580.24
3580.24
3580.24
607.36
607.36
607.36
607.36
202.04
202.039
202.039
202.039
94.3757
94.3749
94.3751
94.3748
53.7823
53.7811
53.7816
53.7813
35.0286
35.0274
35.0285
35.0281
25.1353
25.1349
25.1367
25.1362
19.3588
19.3599
19.3627
19.362
15.6756
15.6786
15.6821
15.6813
13.142
13.1467
13.1508
13.1497
11.296
11.301
11.3057
11.3046
9.89196
9.89689
9.90124
9.90018
8.78834
8.79332
8.79586
8.79454
7.89814
7.90651
7.90504
7.90386
7.17165
7.17926
7.17703
7.17406
6.57139
6.57642
6.57481
6.5686
6.06943
6.07119
6.07066
6.06079
5.64473
5.64275
5.64361
5.63013
5.28069
5.27481
5.27702
5.2605
4.9646
4.95529
4.95739
4.93962
4.6861
4.67409
4.67644
4.65745
4.43661
4.42267
4.42548
4.40543
4.20956
4.19429
4.19758
4.17662
4.00054
3.98431
3.98813
3.96638
3.80671
3.78984
3.7943
3.77177
3.6268
3.60951
3.6148
3.59141
3.46039
3.44284
3.4491
3.42476
3.30696
3.28946
3.29656
3.2714
3.16518
3.14863
3.15534
3.13047
3.03235
3.01944
3.0213
3.00084
2.90336
2.90241
2.89005
2.88095
2.78756
2.77908
2.77568
2.76576
2.67744
2.66738
2.66567
2.65485
2.57079
2.56016
2.55925
2.54789
2.46756
2.45607
2.45641
2.44375
2.36849
2.35404
2.35773
2.34111
2.277
2.25275
2.26622
2.23846
2.1792
2.15528
2.16797
2.14025
2.08145
2.05924
2.07039
2.04327
1.98236
1.96585
1.97346
1.94715
1.8773
1.87927
1.87811
1.85174
1.78103
1.78411
1.78327
1.75656
1.68531
1.68852
1.68834
1.66141
1.59007
1.59323
1.59364
1.56671
1.49635
1.4992
1.50034
1.47345
1.40621
1.40797
1.41026
1.3833
1.324
1.32102
1.32625
1.29914
1.26029
1.2344
1.25119
1.22507
1.20419
1.1746
1.18748
1.16751
1.17166
1.13903
1.14021
1.12889
)
;

boundaryField
{
    inlet
    {
        type            cyclic;
    }
    outlet
    {
        type            cyclic;
    }
    fixedWalls-bottom
    {
        beta1           0.075;
        blended         0;
        type            omegaWallFunction;
        value           nonuniform List<scalar> 4(3580.24 3580.24 3580.24 3580.24);
    }
    fixedWalls-top
    {
        type            symmetry;
    }
    frontAndBack
    {
        type            empty;
    }
}


// ************************************************************************* //
