/*--------------------------------*- C++ -*----------------------------------*\
  =========                 |
  \\      /  F ield         | OpenFOAM: The Open Source CFD Toolbox
   \\    /   O peration     | Website:  https://openfoam.org
    \\  /    A nd           | Version:  10
     \\/     M anipulation  |
\*---------------------------------------------------------------------------*/
FoamFile
{
    format      ascii;
    class       volScalarField;
    location    "241";
    object      p;
}
// * * * * * * * * * * * * * * * * * * * * * * * * * * * * * * * * * * * * * //

dimensions      [0 2 -2 0 0 0 0];

internalField   nonuniform List<scalar> 
200
(
-2.92884e-10
-2.33808e-06
-6.38359e-06
-4.06183e-06
-6.57176e-09
-2.34043e-06
-6.37839e-06
-4.0595e-06
-1.18669e-08
-2.34278e-06
-6.37319e-06
-4.05713e-06
-1.52422e-08
-2.34536e-06
-6.3697e-06
-4.05455e-06
-1.67526e-08
-2.34859e-06
-6.36813e-06
-4.05129e-06
-1.57411e-08
-2.35361e-06
-6.36919e-06
-4.04628e-06
-1.11585e-08
-2.36167e-06
-6.37383e-06
-4.03819e-06
-9.7761e-10
-2.37586e-06
-6.38408e-06
-4.02399e-06
1.71984e-08
-2.40112e-06
-6.40232e-06
-3.99869e-06
4.64795e-08
-2.44448e-06
-6.43167e-06
-3.95532e-06
8.82565e-08
-2.50717e-06
-6.47351e-06
-3.89257e-06
1.37318e-07
-2.571e-06
-6.52264e-06
-3.82871e-06
1.88618e-07
-2.62749e-06
-6.574e-06
-3.77216e-06
2.43016e-07
-2.68984e-06
-6.62848e-06
-3.70976e-06
2.98959e-07
-2.76212e-06
-6.6845e-06
-3.63741e-06
3.54729e-07
-2.8439e-06
-6.74037e-06
-3.55557e-06
4.09261e-07
-2.93371e-06
-6.79499e-06
-3.4657e-06
4.6422e-07
-3.03137e-06
-6.85005e-06
-3.36798e-06
5.26216e-07
-3.13759e-06
-6.91215e-06
-3.26169e-06
6.13233e-07
-3.25914e-06
-6.9993e-06
-3.14006e-06
7.51799e-07
-3.40393e-06
-7.13798e-06
-2.99519e-06
9.50769e-07
-3.54626e-06
-7.3372e-06
-2.85279e-06
1.12878e-06
-3.57316e-06
-7.51568e-06
-2.82593e-06
1.04786e-06
-3.46587e-06
-7.4351e-06
-2.93349e-06
7.04093e-07
-3.31958e-06
-7.09119e-06
-3.07999e-06
3.07232e-07
-3.16947e-06
-6.6942e-06
-3.23003e-06
-9.70287e-08
-3.02772e-06
-6.28997e-06
-3.37156e-06
-5.1362e-07
-2.90344e-06
-5.87357e-06
-3.49552e-06
-9.47221e-07
-2.79542e-06
-5.44019e-06
-3.60315e-06
-1.41073e-06
-2.67325e-06
-4.97686e-06
-3.72492e-06
-1.92354e-06
-2.50158e-06
-4.46412e-06
-3.8964e-06
-2.35341e-06
-2.30352e-06
-4.0344e-06
-4.09451e-06
-2.64133e-06
-2.10991e-06
-3.74684e-06
-4.28821e-06
-2.90078e-06
-1.91594e-06
-3.48776e-06
-4.4823e-06
-3.16693e-06
-1.71981e-06
-3.22194e-06
-4.6785e-06
-3.45252e-06
-1.52471e-06
-2.93661e-06
-4.87369e-06
-3.77382e-06
-1.32884e-06
-2.61555e-06
-5.06959e-06
-4.12728e-06
-1.11608e-06
-2.26224e-06
-5.28257e-06
-4.50387e-06
-8.81867e-07
-1.88589e-06
-5.51724e-06
-4.94837e-06
-6.94669e-07
-1.44164e-06
-5.70522e-06
-5.55851e-06
-7.39443e-07
-8.31806e-07
-5.66056e-06
-6.28096e-06
-9.93832e-07
-1.09608e-07
-5.40546e-06
-6.97776e-06
-1.27219e-06
5.87008e-07
-5.12654e-06
-7.61694e-06
-1.53837e-06
1.22614e-06
-4.86043e-06
-8.1924e-06
-1.79575e-06
1.80155e-06
-4.60321e-06
-8.69058e-06
-2.04132e-06
2.29975e-06
-4.35773e-06
-9.06932e-06
-2.23277e-06
2.67853e-06
-4.16654e-06
-9.2587e-06
-2.24638e-06
2.86806e-06
-4.15378e-06
-9.31235e-06
-2.10291e-06
2.92202e-06
-4.29793e-06
-9.35111e-06
-1.94884e-06
2.96137e-06
-4.4524e-06
)
;

boundaryField
{
    inlet
    {
        type            cyclic;
    }
    outlet
    {
        type            cyclic;
    }
    fixedWalls-bottom
    {
        type            zeroGradient;
    }
    fixedWalls-top
    {
        type            symmetry;
    }
    frontAndBack
    {
        type            empty;
    }
}


// ************************************************************************* //
