/*--------------------------------*- C++ -*----------------------------------*\
  =========                 |
  \\      /  F ield         | OpenFOAM: The Open Source CFD Toolbox
   \\    /   O peration     | Website:  https://openfoam.org
    \\  /    A nd           | Version:  10
     \\/     M anipulation  |
\*---------------------------------------------------------------------------*/
FoamFile
{
    format      ascii;
    class       surfaceScalarField;
    location    "241";
    object      phi;
}
// * * * * * * * * * * * * * * * * * * * * * * * * * * * * * * * * * * * * * //

dimensions      [0 3 -1 0 0 0 0];

internalField   nonuniform List<scalar> 
346
(
0.000455618
-2.91188e-08
0.000455631
-1.41195e-08
0.000455595
3.56779e-08
1.39933e-08
0.00141076
-1.25894e-07
0.0014108
-5.41572e-08
0.0014107
1.31344e-07
5.37277e-08
0.00243855
-2.77353e-07
0.0024386
-1.14539e-07
0.00243845
2.82127e-07
1.13944e-07
0.00354234
-4.7665e-07
0.00354242
-1.93515e-07
0.00354222
4.80833e-07
1.92704e-07
0.00472399
-7.20825e-07
0.00472408
-2.81664e-07
0.00472384
7.24559e-07
2.80754e-07
0.00598139
-1.00273e-06
0.00598148
-3.71205e-07
0.0059812
1.00614e-06
3.70165e-07
0.00730554
-1.31548e-06
0.00730562
-4.48268e-07
0.00730531
1.31859e-06
4.4718e-07
0.00867955
-1.64112e-06
0.00867961
-5.07477e-07
0.00867928
1.64402e-06
5.06332e-07
0.0100819
-1.95577e-06
0.010082
-5.53023e-07
0.0100816
1.95852e-06
5.51866e-07
0.0114929
-2.22689e-06
0.0114929
-6.12988e-07
0.0114927
2.22948e-06
6.11827e-07
0.0128996
-2.42623e-06
0.0128997
-7.27111e-07
0.0128995
2.42876e-06
7.25963e-07
0.0143024
-2.56189e-06
0.0143026
-8.54715e-07
0.0143024
2.56426e-06
8.53606e-07
0.0157073
-2.66373e-06
0.0157074
-9.36131e-07
0.0157073
2.66612e-06
9.35036e-07
0.017117
-2.74657e-06
0.017117
-9.80306e-07
0.017117
2.74876e-06
9.79284e-07
0.0185344
-2.82447e-06
0.0185345
-9.99331e-07
0.0185344
2.82674e-06
9.98321e-07
0.0199634
-2.91095e-06
0.0199634
-1.00168e-06
0.0199634
2.91299e-06
1.00078e-06
0.0214082
-3.01574e-06
0.0214082
-9.87171e-07
0.0214081
3.01791e-06
9.86259e-07
0.022873
-3.13842e-06
0.022873
-9.47935e-07
0.0228728
3.14034e-06
9.4716e-07
0.0243615
-3.25177e-06
0.0243614
-8.67848e-07
0.0243613
3.25385e-06
8.67055e-07
0.0258766
-3.27302e-06
0.0258764
-7.38388e-07
0.0258764
3.27483e-06
7.37768e-07
0.0274214
-3.04451e-06
0.0274213
-5.94024e-07
0.0274215
3.04649e-06
5.93348e-07
0.0290007
-2.37419e-06
0.0290006
-5.00262e-07
0.0290013
2.37589e-06
4.99797e-07
0.0306197
-1.17105e-06
0.0306194
-2.38873e-07
0.0306206
1.17291e-06
2.38353e-07
0.0322841
-1.82759e-08
0.0322835
2.95981e-07
0.0322847
1.98641e-08
-2.96223e-07
0.0339985
6.05519e-07
0.0339979
8.74843e-07
0.0339985
-6.03827e-07
-8.75187e-07
0.035766
8.79799e-07
0.0357655
1.38232e-06
0.0357657
-8.78348e-07
-1.38234e-06
0.0375893
9.59882e-07
0.0375889
1.7547e-06
0.037589
-9.58363e-07
-1.75487e-06
0.0394713
9.66816e-07
0.0394711
1.95149e-06
0.0394711
-9.65459e-07
-1.9513e-06
0.0414151
9.76854e-07
0.0414151
1.92289e-06
0.0414151
-9.75494e-07
-1.92297e-06
0.0434235
9.81677e-07
0.0434237
1.67943e-06
0.0434237
-9.80397e-07
-1.67911e-06
0.0454992
7.54627e-07
0.0454996
1.33646e-06
0.0454993
-7.53429e-07
-1.33652e-06
0.0476445
4.17924e-07
0.0476449
1.00004e-06
0.0476445
-4.16751e-07
-9.99697e-07
0.0498616
2.68538e-07
0.0498619
7.22198e-07
0.0498618
-2.67483e-07
-7.22301e-07
0.0521528
2.4334e-07
0.052153
5.5503e-07
0.052153
-2.42298e-07
-5.54748e-07
0.0545197
2.8691e-07
0.0545198
4.96746e-07
0.0545198
-2.85992e-07
-4.96945e-07
0.0569637
3.57496e-07
0.0569637
5.15932e-07
0.0569638
-3.56631e-07
-5.15827e-07
0.059486
3.82466e-07
0.059486
5.72235e-07
0.059486
-3.81611e-07
-5.72533e-07
0.062087
2.98929e-07
0.0620869
7.13056e-07
0.0620868
-2.98181e-07
-7.13159e-07
0.0647662
1.32152e-07
0.0647658
1.09818e-06
0.0647656
-1.3127e-07
-1.09857e-06
0.0675224
-2.40993e-08
0.0675216
1.85826e-06
0.0675215
2.48223e-08
-1.85856e-06
0.0703533
-2.69005e-07
0.0703527
2.48472e-06
0.0703524
2.69904e-07
-2.48512e-06
0.0732556
-5.81607e-07
0.0732555
2.54625e-06
0.0732552
5.82274e-07
-2.54659e-06
0.0762241
-7.37526e-07
0.0762243
2.32833e-06
0.0762242
7.38284e-07
-2.32858e-06
0.0792512
-7.34416e-07
0.0792515
2.03262e-06
0.0792515
7.34844e-07
-2.03271e-06
0.0823255
-6.20556e-07
0.0823258
1.69727e-06
0.0823259
6.20789e-07
-1.69712e-06
0.0854314
-4.23665e-07
0.0854318
1.21778e-06
0.085432
4.23444e-07
-1.21731e-06
0.0885474
-2.29714e-07
0.0885481
4.81155e-07
0.0885483
2.29104e-07
-4.80372e-07
0.0916449
2.15997e-08
0.0916455
-9.08374e-08
0.0916457
-2.25149e-08
9.18142e-08
0.0946872
2.10974e-07
0.0946873
-2.18992e-07
0.0946875
-2.11661e-07
2.19679e-07
0.0976309
0.0976307
0.0976305
)
;

boundaryField
{
    inlet
    {
        type            cyclic;
        value           nonuniform List<scalar> 
50
(
-0.0976307
-0.0946874
-0.0916452
-0.0885476
-0.0854315
-0.0823256
-0.0792512
-0.076224
-0.0732552
-0.0703531
-0.0675222
-0.064766
-0.062087
-0.059486
-0.0569638
-0.0545198
-0.0521528
-0.0498615
-0.0476442
-0.045499
-0.0434235
-0.0414151
-0.0394713
-0.0375893
-0.0357662
-0.0339991
-0.0322852
-0.0306209
-0.0290014
-0.0274216
-0.0258765
-0.0243614
-0.0228729
-0.0214081
-0.0199633
-0.0185344
-0.0171169
-0.0157072
-0.0143023
-0.0128994
-0.0114926
-0.0100816
-0.00867922
-0.00730523
-0.00598111
-0.00472375
-0.00354214
-0.00243839
-0.00141066
-0.000455581
)
;
    }
    outlet
    {
        type            cyclic;
        value           nonuniform List<scalar> 
50
(
0.0976307
0.0946874
0.0916452
0.0885476
0.0854315
0.0823256
0.0792512
0.076224
0.0732552
0.0703531
0.0675222
0.064766
0.062087
0.059486
0.0569638
0.0545198
0.0521528
0.0498615
0.0476442
0.045499
0.0434235
0.0414151
0.0394713
0.0375893
0.0357662
0.0339991
0.0322852
0.0306209
0.0290014
0.0274216
0.0258765
0.0243614
0.0228729
0.0214081
0.0199633
0.0185344
0.0171169
0.0157072
0.0143023
0.0128994
0.0114926
0.0100816
0.00867922
0.00730523
0.00598111
0.00472375
0.00354214
0.00243839
0.00141066
0.000455581
)
;
    }
    fixedWalls-bottom
    {
        type            calculated;
        value           uniform 0;
    }
    fixedWalls-top
    {
        type            symmetry;
        value           uniform 0;
    }
    frontAndBack
    {
        type            empty;
        value           nonuniform List<scalar> 0();
    }
}


// ************************************************************************* //
