/*--------------------------------*- C++ -*----------------------------------*\
  =========                 |
  \\      /  F ield         | OpenFOAM: The Open Source CFD Toolbox
   \\    /   O peration     | Website:  https://openfoam.org
    \\  /    A nd           | Version:  10
     \\/     M anipulation  |
\*---------------------------------------------------------------------------*/
FoamFile
{
    format      ascii;
    class       volSymmTensorField;
    location    "241";
    object      R;
}
// * * * * * * * * * * * * * * * * * * * * * * * * * * * * * * * * * * * * * //

dimensions      [0 2 -2 0 0 0 0];

internalField   nonuniform List<symmTensor> 
200
(
(8.22758e-08 -1.84181e-10 -0 8.22758e-08 -0 8.22758e-08)
(8.22876e-08 -1.84225e-10 -0 8.22876e-08 -0 8.22876e-08)
(8.22398e-08 -1.8411e-10 -0 8.22398e-08 -0 8.22398e-08)
(8.22187e-08 -1.84046e-10 -0 8.22187e-08 -0 8.22187e-08)
(2.48565e-06 -3.24915e-08 -0 2.48565e-06 -0 2.48565e-06)
(2.48601e-06 -3.24987e-08 -0 2.48601e-06 -0 2.48601e-06)
(2.48456e-06 -3.24787e-08 -0 2.48456e-06 -0 2.48456e-06)
(2.48392e-06 -3.24678e-08 -0 2.48392e-06 -0 2.48392e-06)
(1.79808e-05 -6.99456e-07 -0 1.79808e-05 -0 1.79808e-05)
(1.79834e-05 -6.99601e-07 -0 1.79834e-05 -0 1.79834e-05)
(1.79729e-05 -6.99174e-07 -0 1.79729e-05 -0 1.79729e-05)
(1.79683e-05 -6.98949e-07 -0 1.79683e-05 -0 1.79683e-05)
(6.68391e-05 -5.50146e-06 -0 6.68392e-05 -0 6.68392e-05)
(6.68483e-05 -5.50252e-06 -0 6.68483e-05 -0 6.68483e-05)
(6.68092e-05 -5.49915e-06 -0 6.68091e-05 -0 6.68092e-05)
(6.67924e-05 -5.49749e-06 -0 6.67923e-05 -0 6.67923e-05)
(0.000175783 -2.49935e-05 -0 0.000175783 -0 0.000175783)
(0.000175805 -2.49979e-05 -0 0.000175805 -0 0.000175805)
(0.000175701 -2.49823e-05 -0 0.0001757 -0 0.0001757)
(0.000175658 -2.49754e-05 -0 0.000175658 -0 0.000175658)
(0.000373374 -7.95758e-05 -0 0.000373376 -0 0.000373375)
(0.000373411 -7.95873e-05 -0 0.000373411 -0 0.000373411)
(0.000373187 -7.95349e-05 -0 0.000373185 -0 0.000373186)
(0.000373101 -7.95158e-05 -0 0.000373101 -0 0.000373101)
(0.000680598 -0.000194646 -0 0.000680602 -0 0.0006806)
(0.000680637 -0.000194659 -0 0.000680638 -0 0.000680638)
(0.000680223 -0.000194521 -0 0.000680219 -0 0.000680221)
(0.000680083 -0.000194485 -0 0.000680082 -0 0.000680082)
(0.00109801 -0.000385535 -0 0.00109802 -0 0.00109801)
(0.00109802 -0.000385506 -0 0.00109802 -0 0.00109802)
(0.00109734 -0.00038521 -0 0.00109734 -0 0.00109734)
(0.00109715 -0.000385166 -0 0.00109715 -0 0.00109715)
(0.00159898 -0.000643305 -0 0.001599 -0 0.00159899)
(0.00159892 -0.000643137 -0 0.00159893 -0 0.00159892)
(0.00159796 -0.000642616 -0 0.00159794 -0 0.00159795)
(0.00159774 -0.000642593 -0 0.00159774 -0 0.00159774)
(0.00213797 -0.000937135 -0 0.00213799 -0 0.00213798)
(0.00213783 -0.000936734 -0 0.00213784 -0 0.00213783)
(0.00213661 -0.000935963 -0 0.00213658 -0 0.00213659)
(0.0021364 -0.000935999 -0 0.0021364 -0 0.0021364)
(0.00266833 -0.0012339 -0 0.00266836 -0 0.00266835)
(0.00266816 -0.00123325 -0 0.00266817 -0 0.00266816)
(0.00266676 -0.00123219 -0 0.00266674 -0 0.00266675)
(0.00266662 -0.00123232 -0 0.00266661 -0 0.00266661)
(0.00315665 -0.00146785 -0 0.00315667 -0 0.00315666)
(0.00315646 -0.00146776 -0 0.00315648 -0 0.00315647)
(0.00315503 -0.00146708 -0 0.00315501 -0 0.00315502)
(0.00315499 -0.00146706 -0 0.00315497 -0 0.00315498)
(0.00359149 -0.00167005 -0 0.00359151 -0 0.0035915)
(0.0035912 -0.00166991 -0 0.00359121 -0 0.0035912)
(0.00358972 -0.00166922 -0 0.0035897 -0 0.00358971)
(0.0035899 -0.0016693 -0 0.00358988 -0 0.00358989)
(0.00396677 -0.00184456 -0 0.00396679 -0 0.00396678)
(0.00396633 -0.00184435 -0 0.00396634 -0 0.00396633)
(0.00396485 -0.00184365 -0 0.00396483 -0 0.00396484)
(0.00396536 -0.00184389 -0 0.00396535 -0 0.00396535)
(0.00428097 -0.00199067 -0 0.00428098 -0 0.00428097)
(0.00428047 -0.00199043 -0 0.00428047 -0 0.00428047)
(0.00427895 -0.00198973 -0 0.00427894 -0 0.00427895)
(0.00427995 -0.00199019 -0 0.00427995 -0 0.00427995)
(0.00453625 -0.00210945 -0 0.00453627 -0 0.00453626)
(0.00453577 -0.00210923 -0 0.00453577 -0 0.00453577)
(0.0045342 -0.00210849 -0 0.00453418 -0 0.00453419)
(0.00453578 -0.00210923 -0 0.00453578 -0 0.00453578)
(0.00473701 -0.00220317 -0 0.00473704 -0 0.00473702)
(0.00473655 -0.00220295 -0 0.00473655 -0 0.00473655)
(0.00473491 -0.00220218 -0 0.00473488 -0 0.0047349)
(0.00473708 -0.00220318 -0 0.00473708 -0 0.00473708)
(0.00488866 -0.00227493 -0 0.0048887 -0 0.00488868)
(0.00488816 -0.00227467 -0 0.00488815 -0 0.00488815)
(0.00488644 -0.00227387 -0 0.0048864 -0 0.00488642)
(0.00488924 -0.00227512 -0 0.00488925 -0 0.00488925)
(0.00499667 -0.00232867 -0 0.00499671 -0 0.00499669)
(0.00499621 -0.00232836 -0 0.00499618 -0 0.00499619)
(0.00499445 -0.00232756 -0 0.00499441 -0 0.00499443)
(0.00499788 -0.00232896 -0 0.00499791 -0 0.00499789)
(0.00506664 -0.00236951 -0 0.00506664 -0 0.00506664)
(0.00506622 -0.00236901 -0 0.00506618 -0 0.0050662)
(0.0050645 -0.00236828 -0 0.0050645 -0 0.0050645)
(0.00506854 -0.00236962 -0 0.00506858 -0 0.00506856)
(0.00510365 -0.00239457 -0 0.00510355 -0 0.0051036)
(0.00510329 -0.00239383 -0 0.00510324 -0 0.00510326)
(0.00510164 -0.00239324 -0 0.00510175 -0 0.00510169)
(0.00510629 -0.0023944 -0 0.00510634 -0 0.00510632)
(0.00511238 -0.00240045 -0 0.00511208 -0 0.00511224)
(0.0051121 -0.00239961 -0 0.00511205 -0 0.00511209)
(0.00511053 -0.00239914 -0 0.00511083 -0 0.00511067)
(0.00511579 -0.00240035 -0 0.00511584 -0 0.00511581)
(0.00509678 -0.00238943 -0 0.00509631 -0 0.00509653)
(0.00509695 -0.00239488 -0 0.00509682 -0 0.00509689)
(0.00509539 -0.00239452 -0 0.00509587 -0 0.00509565)
(0.00510115 -0.00239571 -0 0.00510127 -0 0.0051012)
(0.00505999 -0.00236067 -0 0.00505952 -0 0.00505974)
(0.00506053 -0.0023698 -0 0.00506031 -0 0.00506041)
(0.00505896 -0.00236686 -0 0.00505944 -0 0.00505921)
(0.0050654 -0.00238098 -0 0.00506561 -0 0.00506551)
(0.00500449 -0.00232747 -0 0.0050042 -0 0.00500436)
(0.00500528 -0.0023379 -0 0.00500503 -0 0.00500516)
(0.00500384 -0.00233508 -0 0.00500414 -0 0.00500398)
(0.00501058 -0.00234892 -0 0.00501083 -0 0.00501071)
(0.00493207 -0.00228788 -0 0.00493194 -0 0.00493201)
(0.00493291 -0.00229912 -0 0.00493269 -0 0.0049328)
(0.00493155 -0.00229597 -0 0.00493168 -0 0.00493161)
(0.00493858 -0.0023118 -0 0.0049388 -0 0.00493869)
(0.00484416 -0.00224185 -0 0.00484412 -0 0.00484414)
(0.0048449 -0.00225332 -0 0.00484474 -0 0.00484482)
(0.00484356 -0.00224985 -0 0.0048436 -0 0.00484358)
(0.00485073 -0.00226722 -0 0.0048509 -0 0.00485081)
(0.00474208 -0.00218942 -0 0.00474208 -0 0.00474208)
(0.00474261 -0.00220067 -0 0.00474253 -0 0.00474257)
(0.00474126 -0.00219707 -0 0.00474127 -0 0.00474126)
(0.00474836 -0.00221534 -0 0.00474844 -0 0.0047484)
(0.00462705 -0.0021309 -0 0.00462704 -0 0.00462705)
(0.00462729 -0.00214147 -0 0.0046273 -0 0.00462729)
(0.00462593 -0.00213817 -0 0.00462594 -0 0.00462593)
(0.00463269 -0.00215639 -0 0.00463267 -0 0.00463268)
(0.00450019 -0.00206685 -0 0.00450021 -0 0.00450019)
(0.00450004 -0.0020762 -0 0.00450014 -0 0.00450009)
(0.00449869 -0.00207447 -0 0.00449867 -0 0.00449869)
(0.00450477 -0.00209064 -0 0.00450468 -0 0.00450472)
(0.00436201 -0.00200021 -0 0.00436209 -0 0.00436205)
(0.00436146 -0.00200252 -0 0.00436161 -0 0.00436154)
(0.00436049 -0.00200886 -0 0.00436041 -0 0.00436045)
(0.00436552 -0.00201843 -0 0.00436537 -0 0.00436544)
(0.00421287 -0.00192489 -0 0.00421299 -0 0.00421294)
(0.00421256 -0.00193157 -0 0.00421271 -0 0.00421263)
(0.00421142 -0.0019322 -0 0.0042113 -0 0.00421135)
(0.00421573 -0.00194246 -0 0.00421559 -0 0.00421567)
(0.00405353 -0.00184503 -0 0.0040536 -0 0.00405356)
(0.00405334 -0.00185181 -0 0.00405345 -0 0.0040534)
(0.00405218 -0.00185212 -0 0.00405211 -0 0.00405215)
(0.00405606 -0.00186245 -0 0.00405595 -0 0.004056)
(0.00388451 -0.00176085 -0 0.00388453 -0 0.00388452)
(0.00388439 -0.00176819 -0 0.00388445 -0 0.00388442)
(0.00388341 -0.00176779 -0 0.00388339 -0 0.0038834)
(0.00388701 -0.00177828 -0 0.00388695 -0 0.00388698)
(0.00370624 -0.00167213 -0 0.00370622 -0 0.00370623)
(0.00370637 -0.00168044 -0 0.00370639 -0 0.00370638)
(0.00370563 -0.00167907 -0 0.00370565 -0 0.00370564)
(0.00370911 -0.00169033 -0 0.00370909 -0 0.0037091)
(0.00351979 -0.00157915 -0 0.00351977 -0 0.00351978)
(0.00352016 -0.00158898 -0 0.00352015 -0 0.00352015)
(0.00351936 -0.00158596 -0 0.00351938 -0 0.00351937)
(0.0035229 -0.00159897 -0 0.00352291 -0 0.00352291)
(0.00332549 -0.00147916 -0 0.00332548 -0 0.00332549)
(0.00332633 -0.00149443 -0 0.00332631 -0 0.00332632)
(0.0033251 -0.00148581 -0 0.00332511 -0 0.0033251)
(0.00332903 -0.00150494 -0 0.00332905 -0 0.00332904)
(0.00312447 -0.00138006 -0 0.00312449 -0 0.00312448)
(0.00312553 -0.00139453 -0 0.00312547 -0 0.0031255)
(0.00312406 -0.00138651 -0 0.00312404 -0 0.00312405)
(0.00312805 -0.00140517 -0 0.00312811 -0 0.00312807)
(0.00291759 -0.00127765 -0 0.00291764 -0 0.00291762)
(0.00291868 -0.00129064 -0 0.00291854 -0 0.00291861)
(0.00291709 -0.00128335 -0 0.00291704 -0 0.00291706)
(0.00292084 -0.00130165 -0 0.00292098 -0 0.00292091)
(0.00270594 -0.0011727 -0 0.00270601 -0 0.00270597)
(0.0027069 -0.00118256 -0 0.0027067 -0 0.00270678)
(0.00270513 -0.0011773 -0 0.00270506 -0 0.0027051)
(0.00270851 -0.00119462 -0 0.00270872 -0 0.00270863)
(0.00249121 -0.00106823 -0 0.00249129 -0 0.00249125)
(0.00249149 -0.00106817 -0 0.00249133 -0 0.0024914)
(0.00248927 -0.00106775 -0 0.00248919 -0 0.00248923)
(0.00249243 -0.00108433 -0 0.00249259 -0 0.00249252)
(0.00227372 -0.000956542 -0 0.0022738 -0 0.00227377)
(0.00227381 -0.000955802 -0 0.00227378 -0 0.0022738)
(0.00227142 -0.000955274 -0 0.00227134 -0 0.00227137)
(0.00227436 -0.000971119 -0 0.00227439 -0 0.00227437)
(0.00205616 -0.000842744 -0 0.00205621 -0 0.00205619)
(0.0020563 -0.000841367 -0 0.00205635 -0 0.00205632)
(0.00205388 -0.000840618 -0 0.00205384 -0 0.00205386)
(0.00205656 -0.000855485 -0 0.00205652 -0 0.00205654)
(0.00184217 -0.000727118 -0 0.00184218 -0 0.00184218)
(0.00184214 -0.00072565 -0 0.00184221 -0 0.00184217)
(0.00183976 -0.000724614 -0 0.00183975 -0 0.00183975)
(0.00184232 -0.000738193 -0 0.00184225 -0 0.00184228)
(0.00163521 -0.000610245 -0 0.00163519 -0 0.0016352)
(0.00163538 -0.000609222 -0 0.00163545 -0 0.00163541)
(0.0016332 -0.000607999 -0 0.00163321 -0 0.0016332)
(0.00163599 -0.000620205 -0 0.00163592 -0 0.00163596)
(0.00144121 -0.000493494 -0 0.00144118 -0 0.0014412)
(0.00144138 -0.000493174 -0 0.00144147 -0 0.00144142)
(0.00143944 -0.000491739 -0 0.00143947 -0 0.00143945)
(0.00144205 -0.000502203 -0 0.00144195 -0 0.001442)
(0.00126664 -0.000377985 -0 0.00126661 -0 0.00126663)
(0.00126679 -0.000378866 -0 0.0012669 -0 0.00126685)
(0.00126523 -0.000376971 -0 0.00126526 -0 0.00126524)
(0.00126749 -0.000385433 -0 0.00126738 -0 0.00126743)
(0.00111992 -0.000263923 -0 0.00111989 -0 0.00111991)
(0.00112013 -0.000269123 -0 0.00112021 -0 0.00112018)
(0.00111931 -0.000265352 -0 0.00111934 -0 0.00111932)
(0.00112066 -0.000271262 -0 0.00112058 -0 0.00112062)
(0.00101191 -0.000156149 -0 0.00101191 -0 0.00101191)
(0.00101234 -0.000159932 -0 0.00101236 -0 0.00101235)
(0.00101189 -0.000157943 -0 0.00101189 -0 0.00101189)
(0.00101282 -0.000160758 -0 0.0010128 -0 0.00101281)
(0.000953529 -5.16562e-05 -0 0.000953562 -0 0.000953549)
(0.000953979 -5.31565e-05 -0 0.000953955 -0 0.000953962)
(0.000953961 -5.29397e-05 -0 0.000953927 -0 0.00095394)
(0.000954654 -5.34989e-05 -0 0.000954678 -0 0.000954671)
)
;

boundaryField
{
    inlet
    {
        type            cyclic;
    }
    outlet
    {
        type            cyclic;
    }
    fixedWalls-bottom
    {
        type            kqRWallFunction;
        value           nonuniform List<symmTensor> 4((8.22758e-08 -0 -0 8.22758e-08 -0 8.22758e-08) (8.22876e-08 -0 -0 8.22876e-08 -0 8.22876e-08) (8.22398e-08 -0 -0 8.22398e-08 -0 8.22398e-08) (8.22187e-08 -0 -0 8.22187e-08 -0 8.22187e-08));
    }
    fixedWalls-top
    {
        type            symmetry;
    }
    frontAndBack
    {
        type            empty;
    }
}


// ************************************************************************* //
