/*--------------------------------*- C++ -*----------------------------------*\
  =========                 |
  \\      /  F ield         | OpenFOAM: The Open Source CFD Toolbox
   \\    /   O peration     | Website:  https://openfoam.org
    \\  /    A nd           | Version:  10
     \\/     M anipulation  |
\*---------------------------------------------------------------------------*/
FoamFile
{
    format      ascii;
    class       volVectorField;
    location    "241";
    object      U;
}
// * * * * * * * * * * * * * * * * * * * * * * * * * * * * * * * * * * * * * //

dimensions      [0 1 -1 0 0 0 0];

internalField   nonuniform List<vector> 
200
(
(0.0247262 -4.80588e-09 0)
(0.0247287 -2.87747e-09 0)
(0.0247276 7.09291e-09 0)
(0.0247251 2.77293e-09 0)
(0.0744263 -6.57681e-08 0)
(0.074433 -2.92463e-08 0)
(0.0744301 7.3037e-08 0)
(0.0744232 2.90198e-08 0)
(0.12506 -1.89897e-07 0)
(0.12507 -7.92618e-08 0)
(0.125066 1.95357e-07 0)
(0.125055 7.87393e-08 0)
(0.176601 -3.67341e-07 0)
(0.176614 -1.50096e-07 0)
(0.176609 3.71551e-07 0)
(0.176595 1.49364e-07 0)
(0.228943 -5.90964e-07 0)
(0.228958 -2.35533e-07 0)
(0.228951 5.94791e-07 0)
(0.228935 2.34646e-07 0)
(0.281796 -8.56413e-07 0)
(0.281813 -3.26367e-07 0)
(0.281804 8.59975e-07 0)
(0.281787 3.25376e-07 0)
(0.33458 -1.15745e-06 0)
(0.334597 -4.10525e-07 0)
(0.334587 1.16077e-06 0)
(0.334569 4.09455e-07 0)
(0.386421 -1.48234e-06 0)
(0.386436 -4.76817e-07 0)
(0.386426 1.4854e-06 0)
(0.386408 4.75696e-07 0)
(0.436335 -1.80943e-06 0)
(0.43635 -5.26023e-07 0)
(0.436339 1.8123e-06 0)
(0.436323 5.24871e-07 0)
(0.483527 -2.10665e-06 0)
(0.48354 -5.82287e-07 0)
(0.483531 2.10934e-06 0)
(0.483517 5.81124e-07 0)
(0.52757 -2.33731e-06 0)
(0.527584 -6.84673e-07 0)
(0.527579 2.33989e-06 0)
(0.527568 6.8352e-07 0)
(0.56863 -2.50709e-06 0)
(0.568642 -7.86197e-07 0)
(0.56864 2.50955e-06 0)
(0.568631 7.85067e-07 0)
(0.607066 -2.61924e-06 0)
(0.607075 -9.00301e-07 0)
(0.607073 2.62162e-06 0)
(0.607068 8.992e-07 0)
(0.643096 -2.70681e-06 0)
(0.643102 -9.66841e-07 0)
(0.643099 2.7091e-06 0)
(0.643097 9.65781e-07 0)
(0.676925 -2.78447e-06 0)
(0.676931 -9.9661e-07 0)
(0.676927 2.7867e-06 0)
(0.676926 9.95595e-07 0)
(0.708777 -2.86489e-06 0)
(0.708783 -1.00543e-06 0)
(0.708778 2.86705e-06 0)
(0.708777 1.00447e-06 0)
(0.738871 -2.96063e-06 0)
(0.738876 -9.99498e-07 0)
(0.73887 2.96273e-06 0)
(0.738869 9.9859e-07 0)
(0.767405 -3.08173e-06 0)
(0.767409 -9.73527e-07 0)
(0.767402 3.08378e-06 0)
(0.767401 9.7268e-07 0)
(0.794545 -3.22004e-06 0)
(0.794548 -9.11717e-07 0)
(0.79454 3.22203e-06 0)
(0.794541 9.10926e-07 0)
(0.820418 -3.31851e-06 0)
(0.820418 -8.1109e-07 0)
(0.820409 3.32046e-06 0)
(0.820418 8.10382e-07 0)
(0.845144 -3.2339e-06 0)
(0.845147 -7.06256e-07 0)
(0.845135 3.23597e-06 0)
(0.845161 7.05651e-07 0)
(0.868882 -2.73716e-06 0)
(0.868892 -6.39781e-07 0)
(0.868876 2.73896e-06 0)
(0.868933 6.39337e-07 0)
(0.891797 -1.69621e-06 0)
(0.891808 -3.48213e-07 0)
(0.891782 1.69784e-06 0)
(0.891879 3.47589e-07 0)
(0.914047 -6.58742e-07 0)
(0.914049 2.26393e-08 0)
(0.914017 6.60494e-07 0)
(0.914115 -2.3309e-08 0)
(0.935738 3.54911e-07 0)
(0.935735 6.0402e-07 0)
(0.935706 -3.53154e-07 0)
(0.93577 -6.04165e-07 0)
(0.956924 8.1469e-07 0)
(0.956921 1.16627e-06 0)
(0.956897 -8.13146e-07 0)
(0.956936 -1.16636e-06 0)
(0.977653 9.53218e-07 0)
(0.977648 1.61512e-06 0)
(0.977634 -9.51796e-07 0)
(0.977653 -1.61519e-06 0)
(0.997968 9.68771e-07 0)
(0.997959 1.89675e-06 0)
(0.997958 -9.67389e-07 0)
(0.99796 -1.89677e-06 0)
(1.01791 9.80578e-07 0)
(1.01789 1.96714e-06 0)
(1.01791 -9.79269e-07 0)
(1.01789 -1.96713e-06 0)
(1.0375 9.9483e-07 0)
(1.03748 1.83461e-06 0)
(1.03751 -9.93496e-07 0)
(1.03748 -1.8344e-06 0)
(1.05676 7.94522e-07 0)
(1.05676 1.55132e-06 0)
(1.05678 -7.93434e-07 0)
(1.05675 -1.55112e-06 0)
(1.07571 6.43343e-07 0)
(1.07572 1.15803e-06 0)
(1.07573 -6.42055e-07 0)
(1.07571 -1.15801e-06 0)
(1.09437 3.44566e-07 0)
(1.09438 8.30194e-07 0)
(1.09438 -3.43435e-07 0)
(1.09437 -8.30067e-07 0)
(1.11272 2.40599e-07 0)
(1.11274 6.0776e-07 0)
(1.11273 -2.39512e-07 0)
(1.11273 -6.07674e-07 0)
(1.13077 2.6219e-07 0)
(1.13079 5.0537e-07 0)
(1.13077 -2.61159e-07 0)
(1.13079 -5.05301e-07 0)
(1.1485 3.32033e-07 0)
(1.14852 4.88948e-07 0)
(1.1485 -3.31092e-07 0)
(1.14853 -4.88941e-07 0)
(1.1659 3.77176e-07 0)
(1.16592 5.20144e-07 0)
(1.1659 -3.76274e-07 0)
(1.16592 -5.20137e-07 0)
(1.18295 3.74416e-07 0)
(1.18294 6.19234e-07 0)
(1.18294 -3.73477e-07 0)
(1.18294 -6.19209e-07 0)
(1.19958 2.89439e-07 0)
(1.19956 9.14948e-07 0)
(1.19956 -2.88391e-07 0)
(1.19955 -9.14899e-07 0)
(1.21575 1.20309e-07 0)
(1.21571 1.57356e-06 0)
(1.21572 -1.19447e-07 0)
(1.21571 -1.5735e-06 0)
(1.23138 -2.64526e-07 0)
(1.23135 2.10679e-06 0)
(1.23136 2.6517e-07 0)
(1.23134 -2.1076e-06 0)
(1.2464 -5.05512e-07 0)
(1.2464 2.55419e-06 0)
(1.2464 5.06538e-07 0)
(1.24638 -2.55415e-06 0)
(1.26073 -7.08618e-07 0)
(1.26073 2.47429e-06 0)
(1.26073 7.09449e-07 0)
(1.26072 -2.47482e-06 0)
(1.27423 -7.78017e-07 0)
(1.27423 2.19446e-06 0)
(1.27424 7.78415e-07 0)
(1.27423 -2.19511e-06 0)
(1.28674 -7.2227e-07 0)
(1.28674 1.86066e-06 0)
(1.28675 7.22144e-07 0)
(1.28674 -1.86131e-06 0)
(1.29803 -5.92867e-07 0)
(1.29803 1.42979e-06 0)
(1.29805 5.92292e-07 0)
(1.29804 -1.42996e-06 0)
(1.30784 -3.76411e-07 0)
(1.30785 7.55327e-07 0)
(1.30786 3.74907e-07 0)
(1.30786 -7.55877e-07 0)
(1.31584 4.12148e-08 0)
(1.31584 2.54905e-07 0)
(1.31585 -4.26099e-08 0)
(1.31584 -2.54071e-07 0)
(1.3216 2.65889e-07 0)
(1.32159 -1.26503e-07 0)
(1.3216 -2.64184e-07 0)
(1.32159 1.30039e-07 0)
(1.32468 1.22665e-07 0)
(1.32467 -7.55991e-08 0)
(1.32467 -1.24043e-07 0)
(1.32466 7.49271e-08 0)
)
;

boundaryField
{
    inlet
    {
        type            cyclic;
    }
    outlet
    {
        type            cyclic;
    }
    fixedWalls-bottom
    {
        type            noSlip;
    }
    fixedWalls-top
    {
        type            symmetry;
    }
    frontAndBack
    {
        type            empty;
    }
}


// ************************************************************************* //
