/*--------------------------------*- C++ -*----------------------------------*\
  =========                 |
  \\      /  F ield         | OpenFOAM: The Open Source CFD Toolbox
   \\    /   O peration     | Website:  https://openfoam.org
    \\  /    A nd           | Version:  10
     \\/     M anipulation  |
\*---------------------------------------------------------------------------*/
FoamFile
{
    format      ascii;
    class       volScalarField;
    location    "2500";
    object      k;
}
// * * * * * * * * * * * * * * * * * * * * * * * * * * * * * * * * * * * * * //

dimensions      [0 2 -2 0 0 0 0];

internalField   nonuniform List<scalar> 
400
(
3.9109e-08
3.91726e-08
3.91977e-08
3.91908e-08
1.17343e-06
1.17534e-06
1.1761e-06
1.17589e-06
8.30941e-06
8.32295e-06
8.32827e-06
8.3268e-06
3.01884e-05
3.02378e-05
3.0257e-05
3.02517e-05
7.79375e-05
7.80659e-05
7.81152e-05
7.81012e-05
0.000164187
0.00016446
0.000164561
0.000164532
0.000301969
0.000302476
0.000302657
0.000302602
0.000502923
0.000503772
0.000504059
0.000503966
0.000774817
0.00077612
0.000776527
0.000776386
0.00111909
0.00112093
0.00112145
0.00112125
0.0015296
0.00153198
0.00153259
0.00153233
0.00199337
0.00199623
0.00199687
0.00199656
0.00249319
0.00249636
0.00249695
0.0024966
0.00301071
0.00301396
0.00301444
0.00301406
0.00352902
0.00353217
0.00353248
0.00353205
0.00403421
0.00403711
0.00403718
0.00403672
0.00451585
0.00451843
0.00451825
0.00451771
0.00496702
0.00496928
0.00496882
0.0049682
0.00538449
0.00538653
0.00538574
0.00538505
0.00576809
0.00576995
0.00576883
0.00576811
0.00611722
0.00611895
0.00611752
0.00611682
0.00643201
0.00643365
0.00643196
0.00643131
0.00671326
0.00671482
0.00671295
0.00671237
0.0069623
0.00696376
0.00696179
0.00696131
0.00718079
0.00718214
0.00718013
0.00717977
0.00737064
0.00737186
0.00736988
0.00736965
0.00753388
0.00753494
0.00753305
0.00753294
0.0076726
0.00767346
0.0076717
0.00767169
0.00778885
0.00778945
0.00778788
0.00778792
0.00788459
0.00788488
0.0078835
0.00788362
0.00796169
0.0079616
0.00796043
0.00796062
0.00802181
0.00802134
0.00802039
0.00802065
0.00806653
0.00806572
0.00806498
0.00806531
0.00809731
0.00809622
0.00809566
0.00809606
0.00811549
0.00811414
0.00811373
0.00811421
0.00812224
0.00812067
0.00812037
0.00812095
0.00811864
0.00811687
0.00811665
0.00811737
0.00810563
0.00810368
0.0081035
0.00810441
0.00808404
0.00808192
0.00808176
0.00808291
0.00805463
0.00805233
0.00805217
0.00805362
0.00801805
0.00801556
0.0080154
0.00801719
0.0079749
0.00797221
0.00797204
0.00797425
0.00792572
0.00792284
0.00792266
0.00792535
0.00787106
0.00786798
0.00786781
0.00787105
0.00781143
0.00780816
0.00780802
0.00781174
0.00774734
0.00774393
0.00774382
0.00774793
0.00767929
0.00767579
0.00767573
0.00768011
0.00760769
0.00760412
0.00760411
0.00760869
0.00753255
0.00752889
0.00752896
0.0075338
0.00745383
0.00745007
0.00745022
0.00745538
0.00737169
0.00736778
0.00736801
0.00737351
0.00728623
0.00728216
0.00728244
0.00728829
0.00719757
0.00719331
0.00719362
0.0071998
0.00710577
0.00710134
0.00710164
0.00710812
0.00701091
0.00700635
0.00700659
0.00701333
0.00691306
0.00690845
0.00690853
0.00691551
0.00681229
0.00680755
0.00680756
0.00681473
0.00670863
0.00670377
0.00670373
0.00671105
0.00660214
0.00659717
0.0065971
0.00660452
0.00649286
0.00648781
0.00648771
0.00649517
0.00638083
0.00637573
0.00637559
0.00638307
0.00626606
0.00626096
0.00626078
0.00626825
0.00614859
0.00614353
0.00614331
0.00615074
0.00602845
0.00602346
0.0060232
0.00603059
0.0059057
0.00590075
0.00590047
0.0059078
0.00578036
0.00577543
0.00577514
0.00578241
0.00565245
0.0056475
0.00564722
0.00565443
0.005522
0.00551696
0.00551673
0.00552387
0.00538902
0.00538381
0.00538367
0.00539075
0.00525352
0.00524826
0.00524809
0.00525509
0.00511552
0.00511023
0.00511006
0.00511694
0.00497504
0.00496978
0.0049696
0.00497633
0.00483211
0.00482693
0.00482679
0.00483328
0.00468675
0.00468169
0.00468164
0.00468782
0.00453898
0.00453412
0.00453413
0.00453997
0.00438884
0.00438424
0.00438427
0.00438977
0.00423639
0.00423206
0.0042321
0.00423725
0.00408168
0.00407764
0.00407768
0.00408243
0.0039248
0.00392108
0.00392107
0.00392536
0.0037659
0.00376249
0.00376237
0.00376604
0.003605
0.003602
0.00360158
0.00360453
0.00344214
0.00343963
0.00343877
0.00344132
0.00327754
0.0032754
0.00327416
0.0032766
0.0031115
0.00310957
0.00310813
0.00311056
0.00294432
0.00294249
0.0029411
0.00294338
0.00277643
0.00277456
0.00277337
0.00277535
0.00260808
0.00260619
0.00260518
0.00260688
0.00243964
0.00243785
0.00243687
0.00243841
0.00227158
0.00227021
0.00226892
0.00227053
0.00210492
0.00210397
0.00210239
0.00210403
0.00194085
0.00194013
0.00193856
0.00194016
0.001781
0.00177999
0.00177877
0.00178046
0.00162684
0.00162549
0.00162487
0.00162657
0.00148024
0.00147909
0.00147896
0.00148057
0.00134386
0.00134329
0.00134316
0.00134465
0.00122079
0.00122054
0.00122052
0.00122181
0.00111474
0.00111449
0.00111455
0.00111575
0.00102953
0.00102959
0.0010291
0.00103067
0.000969475
0.000969483
0.000968916
0.000970803
0.000938529
0.000937854
0.000937753
0.000939744
)
;

boundaryField
{
    inlet
    {
        type            cyclic;
    }
    outlet
    {
        type            cyclic;
    }
    fixedWalls-bottom
    {
        type            kqRWallFunction;
        value           nonuniform List<scalar> 4(3.9109e-08 3.91726e-08 3.91977e-08 3.91908e-08);
    }
    fixedWalls-top
    {
        type            symmetry;
    }
    frontAndBack
    {
        type            empty;
    }
}


// ************************************************************************* //
