/*--------------------------------*- C++ -*----------------------------------*\
  =========                 |
  \\      /  F ield         | OpenFOAM: The Open Source CFD Toolbox
   \\    /   O peration     | Website:  https://openfoam.org
    \\  /    A nd           | Version:  10
     \\/     M anipulation  |
\*---------------------------------------------------------------------------*/
FoamFile
{
    format      ascii;
    class       volScalarField;
    location    "2500";
    object      omega;
}
// * * * * * * * * * * * * * * * * * * * * * * * * * * * * * * * * * * * * * //

dimensions      [0 0 -1 0 0 0 0];

internalField   nonuniform List<scalar> 
400
(
9004.71
9004.71
9004.71
9004.71
1540.26
1540.26
1540.26
1540.26
518.358
518.358
518.358
518.358
244.04
244.039
244.039
244.039
138.898
138.895
138.895
138.895
89.2921
89.2861
89.2851
89.2861
62.6116
62.6012
62.5997
62.6011
46.9303
46.9147
46.9129
46.9148
37.0882
37.0674
37.0654
37.0678
30.5637
30.5387
30.5369
30.5394
26.0119
25.9843
25.9828
25.9853
22.6718
22.6436
22.6427
22.6449
20.0973
20.0709
20.0705
20.0721
18.0232
18.0004
18.0009
18.0014
16.2904
16.2728
16.2725
16.2732
14.8044
14.7915
14.7925
14.792
13.5074
13.4995
13.501
13.5007
12.3644
12.3591
12.3623
12.363
11.3475
11.3453
11.35
11.3507
10.4396
10.4393
10.4456
10.446
9.6281
9.62928
9.63684
9.63687
8.90382
8.90589
8.91419
8.91401
8.25887
8.26138
8.26987
8.26955
7.68609
7.68868
7.69685
7.6964
7.17866
7.18105
7.18848
7.18783
6.72997
6.73195
6.73837
6.73732
6.3335
6.33495
6.3404
6.33852
5.98283
5.98402
5.98874
5.98636
5.67262
5.67362
5.67787
5.67512
5.39785
5.39871
5.4027
5.39966
5.15389
5.15532
5.15846
5.15532
4.93659
4.93905
4.94109
4.93795
4.74307
4.74592
4.74691
4.74353
4.56972
4.57269
4.57262
4.56894
4.41345
4.41604
4.41563
4.41143
4.27183
4.27404
4.27339
4.26865
4.14273
4.14464
4.14381
4.13854
4.02442
4.02596
4.0251
4.01925
3.91535
3.91645
3.91572
3.9093
3.81403
3.81518
3.81432
3.80741
3.71981
3.72085
3.71991
3.71256
3.63177
3.63267
3.63166
3.62389
3.5492
3.54996
3.5489
3.54072
3.47156
3.47216
3.47107
3.4625
3.39838
3.39884
3.39773
3.38877
3.32921
3.3296
3.32849
3.31912
3.26359
3.2641
3.26296
3.25319
3.2018
3.20179
3.20076
3.19056
3.14259
3.14261
3.14152
3.13086
3.0859
3.08615
3.08485
3.07372
3.03146
3.03205
3.03046
3.01882
2.97906
2.97984
2.97802
2.96599
2.92852
2.92944
2.92741
2.91496
2.87963
2.88065
2.87843
2.86559
2.83216
2.83323
2.83086
2.8177
2.78591
2.78701
2.78449
2.77105
2.74081
2.74187
2.73921
2.72552
2.6968
2.69771
2.69492
2.68103
2.65368
2.65453
2.65151
2.63755
2.61096
2.61263
2.60872
2.59505
2.56961
2.57113
2.56755
2.55301
2.52914
2.53047
2.52669
2.51186
2.49004
2.49025
2.48652
2.47121
2.45118
2.45099
2.44683
2.4312
2.41268
2.4124
2.40791
2.39195
2.37459
2.37439
2.36982
2.35348
2.33696
2.33688
2.33259
2.31582
2.2998
2.29968
2.29636
2.27895
2.26306
2.26246
2.26129
2.24269
2.22666
2.22718
2.22627
2.20681
2.1906
2.19329
2.19078
2.17104
2.15524
2.15831
2.15562
2.13531
2.1201
2.12443
2.11949
2.10056
2.08578
2.09075
2.08437
2.06624
2.05207
2.05744
2.05025
2.03242
2.01891
2.02451
2.0168
1.99916
1.98623
1.99185
1.98381
1.96655
1.95389
1.95915
1.9512
1.93469
1.92149
1.92609
1.91918
1.90381
1.88796
1.8931
1.88812
1.87418
1.85738
1.86008
1.8604
1.84414
1.829
1.83027
1.83482
1.81278
1.80023
1.80325
1.8078
1.78135
1.77037
1.77573
1.77827
1.75047
1.74085
1.74708
1.74628
1.72141
1.70899
1.71856
1.71582
1.69295
1.68201
1.6901
1.68841
1.66461
1.65668
1.66278
1.66476
1.63772
1.63575
1.63397
1.64476
1.61235
1.61026
1.60934
1.61933
1.58825
1.58505
1.58524
1.59175
1.56079
1.55296
1.56431
1.5629
1.53202
1.52894
1.53658
1.52928
1.50781
1.50539
1.50097
1.4958
1.48509
1.48418
1.47743
1.47185
1.46162
1.46697
1.45543
1.45426
1.43988
1.45192
1.43425
1.44374
1.41757
1.45447
1.41494
1.44533
1.3925
1.43762
1.40309
1.4226
1.36888
1.39117
1.39726
1.39421
1.34945
)
;

boundaryField
{
    inlet
    {
        type            cyclic;
    }
    outlet
    {
        type            cyclic;
    }
    fixedWalls-bottom
    {
        beta1           0.075;
        blended         0;
        type            omegaWallFunction;
        value           uniform 9004.71;
    }
    fixedWalls-top
    {
        type            symmetry;
    }
    frontAndBack
    {
        type            empty;
    }
}


// ************************************************************************* //
