/*--------------------------------*- C++ -*----------------------------------*\
  =========                 |
  \\      /  F ield         | OpenFOAM: The Open Source CFD Toolbox
   \\    /   O peration     | Website:  https://openfoam.org
    \\  /    A nd           | Version:  10
     \\/     M anipulation  |
\*---------------------------------------------------------------------------*/
FoamFile
{
    format      ascii;
    class       volScalarField;
    location    "2500";
    object      p;
}
// * * * * * * * * * * * * * * * * * * * * * * * * * * * * * * * * * * * * * //

dimensions      [0 2 -2 0 0 0 0];

internalField   nonuniform List<scalar> 
400
(
-1.08068e-12
-1.7434e-06
-3.18408e-06
-1.43647e-06
2.41632e-10
-1.74582e-06
-3.18428e-06
-1.43405e-06
6.09733e-10
-1.74866e-06
-3.18465e-06
-1.43121e-06
1.15012e-09
-1.75145e-06
-3.18522e-06
-1.42842e-06
1.98247e-09
-1.7542e-06
-3.18605e-06
-1.42567e-06
3.14903e-09
-1.75688e-06
-3.18721e-06
-1.42298e-06
4.72191e-09
-1.75933e-06
-3.18877e-06
-1.42053e-06
6.78442e-09
-1.76118e-06
-3.19083e-06
-1.41869e-06
9.45349e-09
-1.76172e-06
-3.1935e-06
-1.41814e-06
1.28711e-08
-1.75988e-06
-3.19692e-06
-1.41999e-06
1.72567e-08
-1.75436e-06
-3.2013e-06
-1.42551e-06
2.28813e-08
-1.74407e-06
-3.20693e-06
-1.4358e-06
3.00267e-08
-1.72877e-06
-3.21407e-06
-1.4511e-06
3.88454e-08
-1.7093e-06
-3.22288e-06
-1.47057e-06
4.9454e-08
-1.68731e-06
-3.23349e-06
-1.49256e-06
6.23419e-08
-1.66545e-06
-3.24638e-06
-1.51443e-06
7.81939e-08
-1.64717e-06
-3.26223e-06
-1.5327e-06
9.62984e-08
-1.63581e-06
-3.28034e-06
-1.54406e-06
1.16842e-07
-1.63052e-06
-3.30088e-06
-1.54935e-06
1.41437e-07
-1.62782e-06
-3.32548e-06
-1.55206e-06
1.70529e-07
-1.62654e-06
-3.35457e-06
-1.55333e-06
2.03853e-07
-1.62634e-06
-3.3879e-06
-1.55354e-06
2.40891e-07
-1.62683e-06
-3.42494e-06
-1.55305e-06
2.80952e-07
-1.62764e-06
-3.465e-06
-1.55224e-06
3.23294e-07
-1.62847e-06
-3.50734e-06
-1.5514e-06
3.67192e-07
-1.62912e-06
-3.55124e-06
-1.55075e-06
4.12097e-07
-1.62949e-06
-3.59615e-06
-1.55038e-06
4.5768e-07
-1.6296e-06
-3.64173e-06
-1.55027e-06
5.03888e-07
-1.62973e-06
-3.68794e-06
-1.55013e-06
5.50755e-07
-1.63045e-06
-3.73481e-06
-1.54942e-06
5.98309e-07
-1.63237e-06
-3.78236e-06
-1.5475e-06
6.46498e-07
-1.63575e-06
-3.83056e-06
-1.54412e-06
6.95414e-07
-1.64044e-06
-3.87948e-06
-1.53943e-06
7.45271e-07
-1.64609e-06
-3.92934e-06
-1.53377e-06
7.96333e-07
-1.65244e-06
-3.9804e-06
-1.52742e-06
8.48729e-07
-1.65928e-06
-4.0328e-06
-1.52058e-06
9.02443e-07
-1.66651e-06
-4.08652e-06
-1.51335e-06
9.57241e-07
-1.67396e-06
-4.14132e-06
-1.50589e-06
1.01285e-06
-1.68144e-06
-4.19693e-06
-1.49841e-06
1.06896e-06
-1.68845e-06
-4.25305e-06
-1.4914e-06
1.12552e-06
-1.69411e-06
-4.30961e-06
-1.48574e-06
1.18298e-06
-1.69695e-06
-4.36708e-06
-1.4829e-06
1.24307e-06
-1.695e-06
-4.42716e-06
-1.48485e-06
1.31015e-06
-1.6862e-06
-4.49424e-06
-1.49364e-06
1.39297e-06
-1.66979e-06
-4.57707e-06
-1.51001e-06
1.50295e-06
-1.64846e-06
-4.68706e-06
-1.53124e-06
1.64053e-06
-1.63015e-06
-4.82465e-06
-1.54952e-06
1.76487e-06
-1.62407e-06
-4.94895e-06
-1.55583e-06
1.79647e-06
-1.62762e-06
-4.98054e-06
-1.55273e-06
1.72241e-06
-1.63256e-06
-4.90648e-06
-1.54813e-06
1.60459e-06
-1.63738e-06
-4.78867e-06
-1.54339e-06
1.47709e-06
-1.64222e-06
-4.66117e-06
-1.5385e-06
1.34102e-06
-1.64707e-06
-4.5251e-06
-1.53359e-06
1.19317e-06
-1.65177e-06
-4.37726e-06
-1.5288e-06
1.03346e-06
-1.65622e-06
-4.21756e-06
-1.52425e-06
8.63237e-07
-1.66015e-06
-4.04734e-06
-1.52022e-06
6.83589e-07
-1.66266e-06
-3.86769e-06
-1.5176e-06
4.95454e-07
-1.66219e-06
-3.67956e-06
-1.51797e-06
2.99412e-07
-1.65769e-06
-3.48353e-06
-1.52239e-06
9.35641e-08
-1.65125e-06
-3.27769e-06
-1.52876e-06
-1.23581e-07
-1.64671e-06
-3.06055e-06
-1.5332e-06
-3.51029e-07
-1.64055e-06
-2.83312e-06
-1.53925e-06
-5.87945e-07
-1.62187e-06
-2.59622e-06
-1.55786e-06
-8.3646e-07
-1.58604e-06
-2.34771e-06
-1.59371e-06
-1.0986e-06
-1.53807e-06
-2.08557e-06
-1.64179e-06
-1.37239e-06
-1.48532e-06
-1.81177e-06
-1.69467e-06
-1.65279e-06
-1.43537e-06
-1.53137e-06
-1.74479e-06
-1.93105e-06
-1.39738e-06
-1.25312e-06
-1.7829e-06
-2.19744e-06
-1.38278e-06
-9.86767e-07
-1.79752e-06
-2.46119e-06
-1.39582e-06
-7.23024e-07
-1.78439e-06
-2.74622e-06
-1.42792e-06
-4.37987e-07
-1.75208e-06
-3.05536e-06
-1.46634e-06
-1.28843e-07
-1.71337e-06
-3.37895e-06
-1.49581e-06
1.94732e-07
-1.68361e-06
-3.71319e-06
-1.50752e-06
5.28949e-07
-1.67167e-06
-4.05451e-06
-1.50584e-06
8.70258e-07
-1.67317e-06
-4.39964e-06
-1.4959e-06
1.21539e-06
-1.68296e-06
-4.74333e-06
-1.47827e-06
1.55909e-06
-1.7005e-06
-5.07473e-06
-1.45244e-06
1.89051e-06
-1.72644e-06
-5.3731e-06
-1.42566e-06
2.18884e-06
-1.7535e-06
-5.61266e-06
-1.42098e-06
2.42829e-06
-1.75851e-06
-5.78674e-06
-1.45907e-06
2.60232e-06
-1.72064e-06
-5.93941e-06
-1.54388e-06
2.75508e-06
-1.63592e-06
-6.1328e-06
-1.66568e-06
2.94859e-06
-1.51404e-06
-6.38123e-06
-1.79968e-06
3.19702e-06
-1.37979e-06
-6.65171e-06
-1.91355e-06
3.46743e-06
-1.26574e-06
-6.91374e-06
-2.01204e-06
3.72941e-06
-1.16719e-06
-7.16103e-06
-2.11189e-06
3.97666e-06
-1.06731e-06
-7.38882e-06
-2.21791e-06
4.20443e-06
-9.613e-07
-7.57585e-06
-2.33294e-06
4.39154e-06
-8.46303e-07
-7.72499e-06
-2.44385e-06
4.54085e-06
-7.35442e-07
-7.88111e-06
-2.5396e-06
4.6971e-06
-6.39605e-07
-8.0797e-06
-2.63464e-06
4.89565e-06
-5.44191e-07
-8.27943e-06
-2.69383e-06
5.0953e-06
-4.84825e-07
-8.40235e-06
-2.66471e-06
5.21827e-06
-5.14353e-07
-8.46196e-06
-2.58704e-06
5.27793e-06
-5.92465e-07
-8.50564e-06
-2.51458e-06
5.32167e-06
-6.65154e-07
-8.54179e-06
-2.46807e-06
5.35785e-06
-7.11754e-07
-8.5796e-06
-2.44181e-06
5.39568e-06
-7.37993e-07
-8.62651e-06
-2.42154e-06
5.44261e-06
-7.58178e-07
-8.66993e-06
-2.41445e-06
5.48597e-06
-7.65097e-07
)
;

boundaryField
{
    inlet
    {
        type            cyclic;
    }
    outlet
    {
        type            cyclic;
    }
    fixedWalls-bottom
    {
        type            zeroGradient;
    }
    fixedWalls-top
    {
        type            symmetry;
    }
    frontAndBack
    {
        type            empty;
    }
}


// ************************************************************************* //
