/*--------------------------------*- C++ -*----------------------------------*\
  =========                 |
  \\      /  F ield         | OpenFOAM: The Open Source CFD Toolbox
   \\    /   O peration     | Website:  https://openfoam.org
    \\  /    A nd           | Version:  10
     \\/     M anipulation  |
\*---------------------------------------------------------------------------*/
FoamFile
{
    format      ascii;
    class       surfaceScalarField;
    location    "2500";
    object      phi;
}
// * * * * * * * * * * * * * * * * * * * * * * * * * * * * * * * * * * * * * //

dimensions      [0 3 -1 0 0 0 0];

internalField   nonuniform List<scalar> 
696
(
0.000149516
4.42288e-12
0.000149526
-1.00626e-08
0.000149526
1.75403e-11
1.00601e-08
0.000455591
1.4885e-09
0.000455622
-4.09719e-08
0.000455624
-1.46185e-09
4.0965e-08
0.000773136
5.69168e-09
0.000773189
-9.38251e-08
0.000773193
-5.66162e-09
9.38138e-08
0.00110243
1.35878e-08
0.00110251
-1.69793e-07
0.00110251
-1.35504e-08
1.69777e-07
0.00144368
2.58448e-08
0.00144378
-2.70204e-07
0.00144379
-2.58045e-08
2.70184e-07
0.00179686
4.26919e-08
0.00179699
-3.96304e-07
0.001797
-4.2644e-08
3.96279e-07
0.00216157
6.35651e-08
0.00216172
-5.48887e-07
0.00216174
-6.35151e-08
5.48858e-07
0.00253676
8.69072e-08
0.00253693
-7.2729e-07
0.00253696
-8.685e-08
7.27256e-07
0.0029206
1.09863e-07
0.0029208
-9.28132e-07
0.00292082
-1.09804e-07
9.28093e-07
0.00331052
1.28458e-07
0.00331074
-1.14381e-06
0.00331076
-1.28393e-07
1.14376e-06
0.0037035
1.3797e-07
0.00370372
-1.36221e-06
0.00370373
-1.37905e-07
1.36216e-06
0.00409642
1.33861e-07
0.00409662
-1.56809e-06
0.00409662
-1.3379e-07
1.56804e-06
0.00448651
1.12488e-07
0.00448669
-1.74667e-06
0.00448666
-1.12417e-07
1.74661e-06
0.00487158
7.16725e-08
0.00487172
-1.88779e-06
0.00487168
-7.15961e-08
1.88773e-06
0.00525009
1.07163e-08
0.00525019
-1.98729e-06
0.00525013
-1.06404e-08
1.98723e-06
0.00562111
-6.82065e-08
0.00562118
-2.04888e-06
0.0056211
6.82872e-08
2.04882e-06
0.00598424
-1.59165e-07
0.00598427
-2.084e-06
0.00598418
1.59246e-07
2.08393e-06
0.0063396
-2.58917e-07
0.00633962
-2.11141e-06
0.00633952
2.59001e-07
2.11134e-06
0.00668831
-3.64289e-07
0.00668835
-2.14396e-06
0.00668824
3.64374e-07
2.14388e-06
0.0070315
-4.68393e-07
0.00703154
-2.18301e-06
0.00703143
4.68481e-07
2.18294e-06
0.00736964
-5.65335e-07
0.00736969
-2.22782e-06
0.00736959
5.65423e-07
2.22774e-06
0.00770325
-6.50885e-07
0.0077033
-2.27654e-06
0.00770321
6.50976e-07
2.27645e-06
0.00803285
-7.22804e-07
0.0080329
-2.32697e-06
0.00803283
7.22895e-07
2.32688e-06
0.00835903
-7.80611e-07
0.00835908
-2.37682e-06
0.00835902
7.80707e-07
2.37673e-06
0.0086824
-8.25431e-07
0.00868244
-2.42414e-06
0.0086824
8.25526e-07
2.42405e-06
0.00900354
-8.59407e-07
0.00900359
-2.46724e-06
0.00900355
8.59505e-07
2.46715e-06
0.00932307
-8.85291e-07
0.00932311
-2.50498e-06
0.00932309
8.85389e-07
2.50489e-06
0.00964157
-9.0579e-07
0.00964161
-2.53663e-06
0.00964158
9.05891e-07
2.53653e-06
0.00995963
-9.23173e-07
0.00995965
-2.56218e-06
0.00995964
9.23274e-07
2.56208e-06
0.0102778
-9.39117e-07
0.0102778
-2.58248e-06
0.0102778
9.39221e-07
2.58237e-06
0.0105966
-9.54858e-07
0.0105966
-2.59931e-06
0.0105966
9.54961e-07
2.5992e-06
0.0109165
-9.71459e-07
0.0109166
-2.61461e-06
0.0109165
9.71566e-07
2.6145e-06
0.0112381
-9.89674e-07
0.0112381
-2.62989e-06
0.0112381
9.8978e-07
2.62978e-06
0.0115616
-1.01001e-06
0.0115617
-2.64593e-06
0.0115616
1.01012e-06
2.64581e-06
0.0118876
-1.03257e-06
0.0118877
-2.66295e-06
0.0118876
1.03268e-06
2.66283e-06
0.0122165
-1.05759e-06
0.0122165
-2.68069e-06
0.0122165
1.0577e-06
2.68058e-06
0.0125485
-1.08524e-06
0.0125485
-2.69859e-06
0.0125485
1.08535e-06
2.69847e-06
0.012884
-1.11643e-06
0.012884
-2.7156e-06
0.012884
1.11655e-06
2.71548e-06
0.0132234
-1.15221e-06
0.0132234
-2.73007e-06
0.0132233
1.15233e-06
2.72995e-06
0.0135669
-1.19433e-06
0.0135669
-2.73917e-06
0.0135668
1.19444e-06
2.73904e-06
0.0139148
-1.24387e-06
0.0139148
-2.73814e-06
0.0139147
1.24398e-06
2.73802e-06
0.0142674
-1.30076e-06
0.0142674
-2.71926e-06
0.0142673
1.30088e-06
2.71913e-06
0.014625
-1.36049e-06
0.0146249
-2.67104e-06
0.0146249
1.3606e-06
2.6709e-06
0.0149877
-1.41062e-06
0.0149876
-2.57832e-06
0.0149875
1.41074e-06
2.57819e-06
0.0153558
-1.42409e-06
0.0153556
-2.42468e-06
0.0153556
1.42421e-06
2.42455e-06
0.0157294
-1.35634e-06
0.0157292
-2.19817e-06
0.0157292
1.35646e-06
2.19803e-06
0.0161088
-1.15468e-06
0.0161085
-1.90063e-06
0.0161087
1.1548e-06
1.90049e-06
0.0164942
-8.09958e-07
0.0164938
-1.55524e-06
0.0164942
8.10083e-07
1.5551e-06
0.0168861
-4.21603e-07
0.0168857
-1.1895e-06
0.0168861
4.21729e-07
1.18936e-06
0.0172848
-9.79684e-08
0.0172845
-8.23082e-07
0.0172848
9.80959e-08
8.2294e-07
0.0176906
1.44146e-07
0.0176903
-4.72837e-07
0.0176905
-1.44019e-07
4.72694e-07
0.0181037
3.2059e-07
0.0181034
-1.5012e-07
0.0181035
-3.2046e-07
1.49977e-07
0.0185241
4.46414e-07
0.0185238
1.38654e-07
0.0185239
-4.46284e-07
-1.38798e-07
0.0189521
5.34317e-07
0.0189519
3.90498e-07
0.0189519
-5.34186e-07
-3.90642e-07
0.0193878
5.95349e-07
0.0193876
6.04708e-07
0.0193877
-5.95218e-07
-6.04853e-07
0.0198315
6.39969e-07
0.0198313
7.82354e-07
0.0198313
-6.39835e-07
-7.825e-07
0.0202831
6.76555e-07
0.020283
9.2619e-07
0.020283
-6.76421e-07
-9.26336e-07
0.020743
7.12231e-07
0.0207429
1.04101e-06
0.0207429
-7.12094e-07
-1.04116e-06
0.0212112
7.52897e-07
0.0212111
1.13268e-06
0.0212112
-7.5276e-07
-1.13283e-06
0.0216879
8.00732e-07
0.0216879
1.20363e-06
0.0216879
-8.00593e-07
-1.20378e-06
0.0221733
8.5297e-07
0.0221732
1.24811e-06
0.0221733
-8.5283e-07
-1.24826e-06
0.0226674
9.06357e-07
0.0226674
1.26361e-06
0.0226675
-9.06215e-07
-1.26376e-06
0.0231705
9.55386e-07
0.0231705
1.26473e-06
0.0231706
-9.55244e-07
-1.26489e-06
0.0236827
9.8916e-07
0.0236827
1.27387e-06
0.0236827
-9.89015e-07
-1.27402e-06
0.0242041
9.92451e-07
0.0242041
1.30728e-06
0.0242041
-9.92306e-07
-1.30743e-06
0.0247349
9.56007e-07
0.0247348
1.37456e-06
0.0247348
-9.55859e-07
-1.37472e-06
0.0252751
8.81253e-07
0.025275
1.47944e-06
0.0252749
-8.81104e-07
-1.4796e-06
0.025825
7.8676e-07
0.0258249
1.61753e-06
0.0258248
-7.86608e-07
-1.6177e-06
0.0263846
7.16306e-07
0.0263844
1.76728e-06
0.0263844
-7.16152e-07
-1.76745e-06
0.0269541
7.04788e-07
0.0269539
1.89467e-06
0.0269539
-7.04631e-07
-1.89485e-06
0.0275335
7.39122e-07
0.0275335
1.97291e-06
0.0275335
-7.38964e-07
-1.97309e-06
0.0281231
7.97113e-07
0.0281231
1.98517e-06
0.0281232
-7.96951e-07
-1.98535e-06
0.028723
8.65545e-07
0.028723
1.93549e-06
0.0287231
-8.65381e-07
-1.93568e-06
0.0293331
9.22536e-07
0.0293332
1.84235e-06
0.0293333
-9.22366e-07
-1.84254e-06
0.0299537
9.43798e-07
0.0299539
1.71402e-06
0.0299539
-9.43623e-07
-1.71422e-06
0.0305849
9.01258e-07
0.0305851
1.55369e-06
0.030585
-9.01074e-07
-1.55389e-06
0.0312267
7.66008e-07
0.0312269
1.37418e-06
0.0312267
-7.65816e-07
-1.37439e-06
0.0318792
5.18351e-07
0.0318794
1.20899e-06
0.0318791
-5.18147e-07
-1.20921e-06
0.0325425
1.76286e-07
0.0325426
1.10844e-06
0.0325422
-1.76076e-07
-1.10867e-06
0.0332165
-1.78079e-07
0.0332165
1.09912e-06
0.0332161
1.78293e-07
-1.09935e-06
0.0339013
-4.12264e-07
0.0339012
1.16957e-06
0.033901
4.1247e-07
-1.16979e-06
0.0345969
-4.59964e-07
0.0345968
1.27864e-06
0.0345967
4.60152e-07
-1.27884e-06
0.0353034
-3.9215e-07
0.0353033
1.35967e-06
0.0353034
3.92308e-07
-1.35984e-06
0.0360207
-3.24238e-07
0.0360207
1.36126e-06
0.0360208
3.24362e-07
-1.3614e-06
0.0367486
-3.09781e-07
0.0367486
1.31963e-06
0.0367486
3.09865e-07
-1.31973e-06
0.0374867
-3.41961e-07
0.0374867
1.26526e-06
0.0374867
3.42002e-07
-1.26531e-06
0.0382347
-4.09833e-07
0.0382348
1.19735e-06
0.0382347
4.09819e-07
-1.19734e-06
0.0389925
-5.01718e-07
0.0389925
1.12723e-06
0.0389924
5.01637e-07
-1.12716e-06
0.0397594
-5.31607e-07
0.0397595
1.05046e-06
0.0397594
5.31444e-07
-1.0503e-06
0.0405348
-3.97098e-07
0.0405348
9.77157e-07
0.040535
3.96843e-07
-9.7691e-07
0.0413174
-1.212e-07
0.0413175
9.10491e-07
0.0413178
1.20845e-07
-9.10144e-07
0.0421059
1.17589e-07
0.0421061
6.97708e-07
0.0421063
-1.18049e-07
-6.97256e-07
0.0428981
1.9009e-07
0.0428985
2.95865e-07
0.0428986
-1.90593e-07
-2.95369e-07
0.0436919
2.17788e-07
0.0436922
-2.7909e-08
0.0436922
-2.18241e-07
2.83555e-08
0.0444841
2.55428e-07
0.0444842
-1.40599e-07
0.0444843
-2.5577e-07
1.40937e-07
0.0452713
2.46512e-07
0.0452712
-9.43236e-08
0.0452712
-2.46738e-07
9.45465e-08
0.0460487
2.29473e-07
0.0460486
-2.4951e-09
0.0460486
-2.29603e-07
2.62335e-09
0.0468112
2.19819e-07
0.0468111
5.05605e-08
0.0468111
-2.19853e-07
-5.05275e-08
0.0475526
1.56185e-07
0.0475526
7.05172e-08
0.0475525
-1.56152e-07
-7.05505e-08
0.048267
0.0482671
0.0482669
)
;

boundaryField
{
    inlet
    {
        type            cyclic;
        value           nonuniform List<scalar> 
100
(
-0.0482668
-0.0475525
-0.0468112
-0.0460487
-0.0452713
-0.0444841
-0.0436919
-0.0428982
-0.0421061
-0.0413177
-0.0405349
-0.0397594
-0.0389924
-0.0382347
-0.0374866
-0.0367486
-0.0360208
-0.0353035
-0.0345968
-0.033901
-0.0332161
-0.0325421
-0.031879
-0.0312266
-0.0305849
-0.0299538
-0.0293332
-0.028723
-0.0281232
-0.0275336
-0.026954
-0.0263845
-0.0258249
-0.025275
-0.0247348
-0.0242041
-0.0236827
-0.0231706
-0.0226675
-0.0221733
-0.021688
-0.0212113
-0.020743
-0.0202832
-0.0198315
-0.0193879
-0.0189522
-0.0185242
-0.0181039
-0.0176909
-0.0172852
-0.0168865
-0.0164945
-0.016109
-0.0157295
-0.0153558
-0.0149876
-0.0146249
-0.0142674
-0.0139147
-0.0135668
-0.0132233
-0.012884
-0.0125484
-0.0122164
-0.0118876
-0.0115616
-0.0112381
-0.0109165
-0.0105966
-0.0102778
-0.00995961
-0.00964155
-0.00932305
-0.00900351
-0.00868235
-0.00835897
-0.00803278
-0.00770316
-0.00736955
-0.00703139
-0.00668821
-0.0063395
-0.00598415
-0.00562104
-0.00525003
-0.00487154
-0.00448649
-0.00409641
-0.00370351
-0.00331054
-0.00292062
-0.00253678
-0.00216159
-0.00179688
-0.00144369
-0.00110244
-0.00077314
-0.000455593
-0.000149516
)
;
    }
    outlet
    {
        type            cyclic;
        value           nonuniform List<scalar> 
100
(
0.0482668
0.0475525
0.0468112
0.0460487
0.0452713
0.0444841
0.0436919
0.0428982
0.0421061
0.0413177
0.0405349
0.0397594
0.0389924
0.0382347
0.0374866
0.0367486
0.0360208
0.0353035
0.0345968
0.033901
0.0332161
0.0325421
0.031879
0.0312266
0.0305849
0.0299538
0.0293332
0.028723
0.0281232
0.0275336
0.026954
0.0263845
0.0258249
0.025275
0.0247348
0.0242041
0.0236827
0.0231706
0.0226675
0.0221733
0.021688
0.0212113
0.020743
0.0202832
0.0198315
0.0193879
0.0189522
0.0185242
0.0181039
0.0176909
0.0172852
0.0168865
0.0164945
0.016109
0.0157295
0.0153558
0.0149876
0.0146249
0.0142674
0.0139147
0.0135668
0.0132233
0.012884
0.0125484
0.0122164
0.0118876
0.0115616
0.0112381
0.0109165
0.0105966
0.0102778
0.00995961
0.00964155
0.00932305
0.00900351
0.00868235
0.00835897
0.00803278
0.00770316
0.00736955
0.00703139
0.00668821
0.0063395
0.00598415
0.00562104
0.00525003
0.00487154
0.00448649
0.00409641
0.00370351
0.00331054
0.00292062
0.00253678
0.00216159
0.00179688
0.00144369
0.00110244
0.00077314
0.000455593
0.000149516
)
;
    }
    fixedWalls-bottom
    {
        type            calculated;
        value           uniform 0;
    }
    fixedWalls-top
    {
        type            symmetry;
        value           uniform 0;
    }
    frontAndBack
    {
        type            empty;
        value           nonuniform List<scalar> 0();
    }
}


// ************************************************************************* //
