/*--------------------------------*- C++ -*----------------------------------*\
  =========                 |
  \\      /  F ield         | OpenFOAM: The Open Source CFD Toolbox
   \\    /   O peration     | Website:  https://openfoam.org
    \\  /    A nd           | Version:  10
     \\/     M anipulation  |
\*---------------------------------------------------------------------------*/
FoamFile
{
    format      ascii;
    class       volSymmTensorField;
    location    "2500";
    object      R;
}
// * * * * * * * * * * * * * * * * * * * * * * * * * * * * * * * * * * * * * //

dimensions      [0 2 -2 0 0 0 0];

internalField   nonuniform List<symmTensor> 
400
(
(2.60727e-08 -3.04338e-11 -0 2.60727e-08 -0 2.60727e-08)
(2.61151e-08 -3.04862e-11 -0 2.61151e-08 -0 2.61151e-08)
(2.61318e-08 -3.0507e-11 -0 2.61318e-08 -0 2.61318e-08)
(2.61272e-08 -3.05005e-11 -0 2.61272e-08 -0 2.61272e-08)
(7.82289e-07 -5.3134e-09 -0 7.82289e-07 -0 7.82289e-07)
(7.83563e-07 -5.32253e-09 -0 7.83563e-07 -0 7.83563e-07)
(7.84065e-07 -5.32619e-09 -0 7.84065e-07 -0 7.84065e-07)
(7.83926e-07 -5.32507e-09 -0 7.83926e-07 -0 7.83926e-07)
(5.5396e-06 -1.11264e-07 -0 5.5396e-06 -0 5.5396e-06)
(5.54863e-06 -1.11455e-07 -0 5.54863e-06 -0 5.54863e-06)
(5.55218e-06 -1.11532e-07 -0 5.55218e-06 -0 5.55218e-06)
(5.5512e-06 -1.11509e-07 -0 5.5512e-06 -0 5.5512e-06)
(2.01256e-05 -8.5423e-07 -0 2.01256e-05 -0 2.01256e-05)
(2.01585e-05 -8.55707e-07 -0 2.01585e-05 -0 2.01585e-05)
(2.01714e-05 -8.56298e-07 -0 2.01714e-05 -0 2.01714e-05)
(2.01678e-05 -8.56121e-07 -0 2.01678e-05 -0 2.01678e-05)
(5.19583e-05 -3.85222e-06 -0 5.19583e-05 -0 5.19583e-05)
(5.20439e-05 -3.859e-06 -0 5.20439e-05 -0 5.20439e-05)
(5.20768e-05 -3.86166e-06 -0 5.20768e-05 -0 5.20768e-05)
(5.20675e-05 -3.86085e-06 -0 5.20674e-05 -0 5.20674e-05)
(0.000109458 -1.253e-05 -0 0.000109458 -0 0.000109458)
(0.00010964 -1.25529e-05 -0 0.00010964 -0 0.00010964)
(0.000109708 -1.25614e-05 -0 0.000109708 -0 0.000109708)
(0.000109688 -1.25587e-05 -0 0.000109688 -0 0.000109688)
(0.000201312 -3.25229e-05 -0 0.000201312 -0 0.000201312)
(0.00020165 -3.25861e-05 -0 0.000201651 -0 0.000201651)
(0.000201771 -3.26078e-05 -0 0.000201771 -0 0.000201771)
(0.000201735 -3.26002e-05 -0 0.000201734 -0 0.000201735)
(0.000335282 -7.11661e-05 -0 0.000335282 -0 0.000335282)
(0.000335847 -7.13167e-05 -0 0.000335849 -0 0.000335848)
(0.000336039 -7.13624e-05 -0 0.000336039 -0 0.000336039)
(0.000335978 -7.13443e-05 -0 0.000335977 -0 0.000335978)
(0.000516545 -0.000135699 -0 0.000516545 -0 0.000516545)
(0.000517411 -0.000136014 -0 0.000517415 -0 0.000517413)
(0.000517684 -0.000136095 -0 0.000517685 -0 0.000517684)
(0.000517592 -0.000136058 -0 0.000517589 -0 0.000517591)
(0.000746062 -0.000230695 -0 0.000746061 -0 0.000746062)
(0.000747283 -0.000231273 -0 0.000747289 -0 0.000747286)
(0.000747634 -0.000231392 -0 0.000747635 -0 0.000747635)
(0.000747506 -0.000231326 -0 0.0007475 -0 0.000747503)
(0.00101973 -0.000356122 -0 0.00101973 -0 0.00101973)
(0.00102132 -0.000357055 -0 0.00102133 -0 0.00102132)
(0.00102173 -0.000357203 -0 0.00102173 -0 0.00102173)
(0.00102156 -0.000357098 -0 0.00102155 -0 0.00102156)
(0.00132892 -0.000507287 -0 0.00132892 -0 0.00132892)
(0.00133081 -0.00050861 -0 0.00133083 -0 0.00133082)
(0.00133124 -0.00050876 -0 0.00133124 -0 0.00133124)
(0.00133104 -0.000508617 -0 0.00133103 -0 0.00133104)
(0.00166213 -0.000676513 -0 0.00166213 -0 0.00166213)
(0.00166423 -0.000678176 -0 0.00166425 -0 0.00166424)
(0.00166463 -0.000678291 -0 0.00166463 -0 0.00166463)
(0.00166441 -0.000678122 -0 0.00166439 -0 0.0016644)
(0.00200713 -0.000855365 -0 0.00200714 -0 0.00200714)
(0.0020093 -0.000857226 -0 0.00200932 -0 0.00200931)
(0.00200963 -0.000857259 -0 0.00200963 -0 0.00200963)
(0.00200938 -0.000857104 -0 0.00200936 -0 0.00200937)
(0.00235267 -0.0010363 -0 0.00235268 -0 0.00235268)
(0.00235477 -0.00103816 -0 0.00235479 -0 0.00235478)
(0.00235499 -0.00103817 -0 0.00235498 -0 0.00235499)
(0.00235471 -0.00103798 -0 0.00235469 -0 0.0023547)
(0.00268946 -0.00121334 -0 0.00268948 -0 0.00268947)
(0.0026914 -0.00121508 -0 0.00269141 -0 0.00269141)
(0.00269146 -0.00121494 -0 0.00269145 -0 0.00269146)
(0.00269115 -0.0012148 -0 0.00269114 -0 0.00269114)
(0.00301056 -0.00138262 -0 0.00301058 -0 0.00301057)
(0.00301228 -0.00138411 -0 0.00301229 -0 0.00301228)
(0.00301217 -0.00138384 -0 0.00301215 -0 0.00301216)
(0.00301181 -0.00138368 -0 0.0030118 -0 0.0030118)
(0.00331133 -0.00153978 -0 0.00331136 -0 0.00331135)
(0.00331285 -0.00154048 -0 0.00331286 -0 0.00331286)
(0.00331256 -0.00154033 -0 0.00331253 -0 0.00331255)
(0.00331214 -0.00154014 -0 0.00331213 -0 0.00331213)
(0.00358965 -0.00166919 -0 0.00358968 -0 0.00358966)
(0.00359101 -0.00166982 -0 0.00359102 -0 0.00359102)
(0.00359051 -0.00166958 -0 0.00359048 -0 0.00359049)
(0.00359004 -0.00166937 -0 0.00359003 -0 0.00359003)
(0.00384538 -0.00178811 -0 0.00384541 -0 0.0038454)
(0.00384662 -0.00178868 -0 0.00384664 -0 0.00384663)
(0.0038459 -0.00178834 -0 0.00384587 -0 0.00384588)
(0.00384541 -0.00178811 -0 0.0038454 -0 0.00384541)
(0.00407813 -0.00189634 -0 0.00407817 -0 0.00407815)
(0.00407929 -0.00189688 -0 0.00407931 -0 0.0040793)
(0.00407837 -0.00189644 -0 0.00407833 -0 0.00407835)
(0.00407789 -0.00189622 -0 0.00407787 -0 0.00407788)
(0.00428799 -0.00199393 -0 0.00428802 -0 0.004288)
(0.00428909 -0.00199444 -0 0.00428911 -0 0.0042891)
(0.00428799 -0.00199392 -0 0.00428796 -0 0.00428797)
(0.00428755 -0.00199372 -0 0.00428753 -0 0.00428754)
(0.00447549 -0.00208113 -0 0.00447552 -0 0.00447551)
(0.00447653 -0.00208162 -0 0.00447656 -0 0.00447655)
(0.00447532 -0.00208104 -0 0.00447528 -0 0.0044753)
(0.00447493 -0.00208086 -0 0.0044749 -0 0.00447491)
(0.00464152 -0.00215836 -0 0.00464155 -0 0.00464153)
(0.00464249 -0.00215881 -0 0.00464252 -0 0.00464251)
(0.00464121 -0.0021582 -0 0.00464118 -0 0.00464119)
(0.00464088 -0.00215805 -0 0.00464086 -0 0.00464087)
(0.00478718 -0.00222613 -0 0.0047872 -0 0.00478719)
(0.00478808 -0.00222655 -0 0.00478811 -0 0.00478809)
(0.00478677 -0.00222593 -0 0.00478674 -0 0.00478676)
(0.00478653 -0.00222582 -0 0.0047865 -0 0.00478651)
(0.00491375 -0.00228507 -0 0.00491377 -0 0.00491376)
(0.00491456 -0.00228545 -0 0.00491459 -0 0.00491457)
(0.00491327 -0.00228484 -0 0.00491325 -0 0.00491326)
(0.00491311 -0.00228477 -0 0.00491308 -0 0.0049131)
(0.00502258 -0.00233583 -0 0.0050226 -0 0.00502259)
(0.00502328 -0.00233616 -0 0.00502331 -0 0.00502329)
(0.00502204 -0.00233558 -0 0.00502203 -0 0.00502204)
(0.00502197 -0.00233554 -0 0.00502195 -0 0.00502196)
(0.00511506 -0.00237911 -0 0.00511508 -0 0.00511507)
(0.00511563 -0.00237937 -0 0.00511565 -0 0.00511564)
(0.00511448 -0.00237884 -0 0.00511446 -0 0.00511447)
(0.00511447 -0.00237883 -0 0.00511445 -0 0.00511446)
(0.00519256 -0.00241499 -0 0.00519257 -0 0.00519256)
(0.00519295 -0.00241518 -0 0.00519297 -0 0.00519296)
(0.00519192 -0.0024147 -0 0.00519191 -0 0.00519192)
(0.00519196 -0.00241471 -0 0.00519194 -0 0.00519195)
(0.00525639 -0.00244458 -0 0.0052564 -0 0.0052564)
(0.00525658 -0.00244467 -0 0.00525659 -0 0.00525659)
(0.00525567 -0.00244424 -0 0.00525566 -0 0.00525567)
(0.00525575 -0.00244428 -0 0.00525574 -0 0.00525575)
(0.00530779 -0.00246842 -0 0.0053078 -0 0.0053078)
(0.00530773 -0.00246839 -0 0.00530774 -0 0.00530774)
(0.00530696 -0.00246803 -0 0.00530695 -0 0.00530695)
(0.00530709 -0.00246809 -0 0.00530707 -0 0.00530708)
(0.00534787 -0.00248702 -0 0.00534788 -0 0.00534787)
(0.00534755 -0.00248687 -0 0.00534756 -0 0.00534756)
(0.00534693 -0.00248658 -0 0.00534692 -0 0.00534693)
(0.00534711 -0.00248666 -0 0.00534709 -0 0.0053471)
(0.00537768 -0.00250086 -0 0.00537769 -0 0.00537769)
(0.00537714 -0.00250061 -0 0.00537716 -0 0.00537715)
(0.00537666 -0.00250039 -0 0.00537665 -0 0.00537666)
(0.00537688 -0.00250048 -0 0.00537687 -0 0.00537687)
(0.0053982 -0.0025104 -0 0.00539822 -0 0.00539821)
(0.00539747 -0.00251006 -0 0.00539749 -0 0.00539748)
(0.00539712 -0.00250989 -0 0.0053971 -0 0.00539711)
(0.00539738 -0.00251001 -0 0.00539736 -0 0.00539737)
(0.00541032 -0.00251604 -0 0.00541034 -0 0.00541033)
(0.00540942 -0.00251562 -0 0.00540943 -0 0.00540943)
(0.00540916 -0.0025155 -0 0.00540914 -0 0.00540915)
(0.00540948 -0.00251564 -0 0.00540946 -0 0.00540947)
(0.00541482 -0.00251815 -0 0.00541484 -0 0.00541483)
(0.00541377 -0.00251766 -0 0.00541379 -0 0.00541378)
(0.00541359 -0.00251757 -0 0.00541357 -0 0.00541358)
(0.00541398 -0.00251775 -0 0.00541396 -0 0.00541397)
(0.00541241 -0.00251706 -0 0.00541244 -0 0.00541243)
(0.00541124 -0.00251651 -0 0.00541126 -0 0.00541125)
(0.00541111 -0.00251644 -0 0.00541109 -0 0.0054111)
(0.00541159 -0.00251666 -0 0.00541157 -0 0.00541158)
(0.00540374 -0.00251306 -0 0.00540377 -0 0.00540375)
(0.00540244 -0.00251246 -0 0.00540246 -0 0.00540245)
(0.00540235 -0.0025124 -0 0.00540232 -0 0.00540233)
(0.00540295 -0.00251268 -0 0.00540293 -0 0.00540294)
(0.00538934 -0.00250642 -0 0.00538938 -0 0.00538936)
(0.00538794 -0.00250576 -0 0.00538795 -0 0.00538794)
(0.00538786 -0.00250571 -0 0.00538782 -0 0.00538784)
(0.00538861 -0.00250606 -0 0.0053886 -0 0.00538861)
(0.00536973 -0.00249737 -0 0.00536978 -0 0.00536976)
(0.00536821 -0.00249666 -0 0.00536822 -0 0.00536822)
(0.00536814 -0.00249661 -0 0.0053681 -0 0.00536812)
(0.00536908 -0.00249704 -0 0.00536907 -0 0.00536908)
(0.00534534 -0.00248611 -0 0.00534539 -0 0.00534537)
(0.00534371 -0.00248534 -0 0.00534371 -0 0.00534371)
(0.00534363 -0.00248529 -0 0.00534358 -0 0.0053436)
(0.00534479 -0.00248583 -0 0.00534479 -0 0.00534479)
(0.00531657 -0.00247284 -0 0.00531663 -0 0.0053166)
(0.00531482 -0.00247201 -0 0.0053148 -0 0.00531481)
(0.00531472 -0.00247196 -0 0.00531467 -0 0.0053147)
(0.00531615 -0.00247262 -0 0.00531617 -0 0.00531616)
(0.00528378 -0.00245774 -0 0.00528385 -0 0.00528381)
(0.00528192 -0.00245685 -0 0.00528187 -0 0.00528189)
(0.00528181 -0.00245679 -0 0.00528174 -0 0.00528178)
(0.00528354 -0.00245759 -0 0.00528359 -0 0.00528357)
(0.00524734 -0.00244096 -0 0.0052474 -0 0.00524737)
(0.00524537 -0.00244002 -0 0.00524527 -0 0.00524532)
(0.00524523 -0.00243996 -0 0.00524518 -0 0.00524521)
(0.00524731 -0.00244092 -0 0.00524741 -0 0.00524736)
(0.00520761 -0.0024227 -0 0.00520763 -0 0.00520762)
(0.00520552 -0.00242169 -0 0.00520536 -0 0.00520544)
(0.00520535 -0.00242164 -0 0.00520534 -0 0.00520534)
(0.00520774 -0.00242274 -0 0.00520791 -0 0.00520782)
(0.00516493 -0.00240311 -0 0.00516485 -0 0.0051649)
(0.00516274 -0.00240206 -0 0.0051625 -0 0.00516262)
(0.00516251 -0.00240202 -0 0.00516259 -0 0.00516255)
(0.00516517 -0.00240322 -0 0.00516541 -0 0.00516529)
(0.00511964 -0.00238236 -0 0.00511942 -0 0.00511953)
(0.00511735 -0.00238128 -0 0.00511703 -0 0.00511719)
(0.00511704 -0.00238125 -0 0.00511726 -0 0.00511715)
(0.00511991 -0.00238252 -0 0.00512023 -0 0.00512007)
(0.00507198 -0.00235982 -0 0.00507162 -0 0.00507179)
(0.00506959 -0.00235809 -0 0.00506923 -0 0.00506941)
(0.00506923 -0.00235861 -0 0.00506958 -0 0.00506941)
(0.00507228 -0.00236078 -0 0.00507264 -0 0.00507246)
(0.0050219 -0.00233191 -0 0.0050215 -0 0.0050217)
(0.00501946 -0.00233069 -0 0.00501907 -0 0.00501926)
(0.0050191 -0.00233145 -0 0.0050195 -0 0.00501931)
(0.00502234 -0.00233807 -0 0.00502273 -0 0.00502253)
(0.0049694 -0.00230458 -0 0.00496905 -0 0.00496922)
(0.00496691 -0.00230349 -0 0.00496652 -0 0.00496671)
(0.00496664 -0.00230462 -0 0.00496699 -0 0.00496681)
(0.00497006 -0.00231221 -0 0.00497045 -0 0.00497025)
(0.00491459 -0.00227637 -0 0.00491433 -0 0.00491446)
(0.00491204 -0.00227524 -0 0.00491167 -0 0.00491186)
(0.00491188 -0.00227674 -0 0.00491213 -0 0.004912)
(0.00491549 -0.0022848 -0 0.00491586 -0 0.00491568)
(0.00485758 -0.0022473 -0 0.0048574 -0 0.00485749)
(0.00485494 -0.00224608 -0 0.00485461 -0 0.00485477)
(0.00485487 -0.00224789 -0 0.00485505 -0 0.00485496)
(0.00485869 -0.00225679 -0 0.00485903 -0 0.00485886)
(0.00479844 -0.00221736 -0 0.00479831 -0 0.00479838)
(0.00479569 -0.00221598 -0 0.00479539 -0 0.00479554)
(0.00479568 -0.00221805 -0 0.00479581 -0 0.00479575)
(0.00479972 -0.00222775 -0 0.00480001 -0 0.00479986)
(0.00473722 -0.00218655 -0 0.00473713 -0 0.00473718)
(0.00473436 -0.00218499 -0 0.0047341 -0 0.00473423)
(0.00473438 -0.00218726 -0 0.00473447 -0 0.00473443)
(0.00473862 -0.00219768 -0 0.00473887 -0 0.00473874)
(0.00467397 -0.00215491 -0 0.00467391 -0 0.00467394)
(0.00467101 -0.00215318 -0 0.00467079 -0 0.0046709)
(0.00467103 -0.00215559 -0 0.00467109 -0 0.00467106)
(0.00467545 -0.00216663 -0 0.00467566 -0 0.00467555)
(0.00460873 -0.00212244 -0 0.00460869 -0 0.00460871)
(0.00460572 -0.00212057 -0 0.00460554 -0 0.00460563)
(0.00460567 -0.00212307 -0 0.00460571 -0 0.00460569)
(0.00461025 -0.00213465 -0 0.00461043 -0 0.00461034)
(0.00454154 -0.00208913 -0 0.00454151 -0 0.00454152)
(0.00453844 -0.00208714 -0 0.0045383 -0 0.00453837)
(0.00453836 -0.00208971 -0 0.00453839 -0 0.00453838)
(0.00454308 -0.00210175 -0 0.00454323 -0 0.00454315)
(0.00447244 -0.00205495 -0 0.0044724 -0 0.00447242)
(0.00446923 -0.00205291 -0 0.00446912 -0 0.00446918)
(0.00446914 -0.00205553 -0 0.00446917 -0 0.00446915)
(0.00447398 -0.00206797 -0 0.00447409 -0 0.00447403)
(0.00440145 -0.00201989 -0 0.00440141 -0 0.00440143)
(0.00439816 -0.0020179 -0 0.00439807 -0 0.00439811)
(0.00439805 -0.00202053 -0 0.00439808 -0 0.00439807)
(0.00440297 -0.00203329 -0 0.00440305 -0 0.00440301)
(0.0043286 -0.00198428 -0 0.00432855 -0 0.00432857)
(0.00432524 -0.00198184 -0 0.00432517 -0 0.0043252)
(0.00432512 -0.00198495 -0 0.00432516 -0 0.00432514)
(0.00433008 -0.00199766 -0 0.00433015 -0 0.00433012)
(0.00425391 -0.00194752 -0 0.00425386 -0 0.00425388)
(0.00425051 -0.00194526 -0 0.00425047 -0 0.00425049)
(0.00425037 -0.00194808 -0 0.00425042 -0 0.0042504)
(0.00425536 -0.00196138 -0 0.0042554 -0 0.00425538)
(0.0041774 -0.00191002 -0 0.00417735 -0 0.00417737)
(0.00417398 -0.00190778 -0 0.00417397 -0 0.00417398)
(0.00417383 -0.00191071 -0 0.00417388 -0 0.00417386)
(0.00417882 -0.00192411 -0 0.00417884 -0 0.00417883)
(0.00409908 -0.00187134 -0 0.00409904 -0 0.00409906)
(0.00409569 -0.00186969 -0 0.00409569 -0 0.00409569)
(0.00409552 -0.00187244 -0 0.00409556 -0 0.00409554)
(0.00410049 -0.0018861 -0 0.0041005 -0 0.00410049)
(0.00401898 -0.00183212 -0 0.00401895 -0 0.00401897)
(0.00401564 -0.00183063 -0 0.00401563 -0 0.00401564)
(0.00401545 -0.00183345 -0 0.00401548 -0 0.00401547)
(0.00402039 -0.00184726 -0 0.00402039 -0 0.00402039)
(0.00393713 -0.00179216 -0 0.00393713 -0 0.00393713)
(0.00393385 -0.00179075 -0 0.00393382 -0 0.00393383)
(0.00393365 -0.00179356 -0 0.00393365 -0 0.00393365)
(0.00393852 -0.00180755 -0 0.00393855 -0 0.00393854)
(0.00385356 -0.00175148 -0 0.00385359 -0 0.00385357)
(0.00385031 -0.00175003 -0 0.00385026 -0 0.00385029)
(0.00385011 -0.00175277 -0 0.00385008 -0 0.0038501)
(0.00385491 -0.001767 -0 0.00385497 -0 0.00385494)
(0.00376827 -0.00171007 -0 0.00376833 -0 0.0037683)
(0.00376504 -0.00170845 -0 0.00376495 -0 0.003765)
(0.00376485 -0.00171106 -0 0.00376478 -0 0.00376482)
(0.00376958 -0.00172559 -0 0.00376967 -0 0.00376962)
(0.0036813 -0.00166791 -0 0.00368137 -0 0.00368134)
(0.00367803 -0.001666 -0 0.00367792 -0 0.00367797)
(0.00367786 -0.00166844 -0 0.00367778 -0 0.00367782)
(0.00368252 -0.00168332 -0 0.00368264 -0 0.00368258)
(0.00359265 -0.00162498 -0 0.00359271 -0 0.00359268)
(0.00358927 -0.00162307 -0 0.00358915 -0 0.00358921)
(0.00358914 -0.00162473 -0 0.00358909 -0 0.00358911)
(0.00359377 -0.00164019 -0 0.00359389 -0 0.00359383)
(0.00350234 -0.00158124 -0 0.00350235 -0 0.00350235)
(0.00349889 -0.00157872 -0 0.00349879 -0 0.00349884)
(0.00349873 -0.00158046 -0 0.00349872 -0 0.00349873)
(0.00350334 -0.00159622 -0 0.00350344 -0 0.00350339)
(0.00341036 -0.00153671 -0 0.00341034 -0 0.00341035)
(0.00340685 -0.00153312 -0 0.00340679 -0 0.00340682)
(0.00340669 -0.00153583 -0 0.00340672 -0 0.00340671)
(0.00341126 -0.00155141 -0 0.00341132 -0 0.00341129)
(0.00331672 -0.00149116 -0 0.00331667 -0 0.0033167)
(0.00331319 -0.00148762 -0 0.00331318 -0 0.00331319)
(0.00331305 -0.00149021 -0 0.00331309 -0 0.00331307)
(0.00331755 -0.00150588 -0 0.00331756 -0 0.00331755)
(0.00322143 -0.00144495 -0 0.00322138 -0 0.00322141)
(0.00321794 -0.00144084 -0 0.00321797 -0 0.00321795)
(0.00321784 -0.0014445 -0 0.00321789 -0 0.00321786)
(0.00322221 -0.00145911 -0 0.00322217 -0 0.00322219)
(0.00312452 -0.00139771 -0 0.00312448 -0 0.0031245)
(0.0031211 -0.00139349 -0 0.00312116 -0 0.00312113)
(0.00312107 -0.00139763 -0 0.00312111 -0 0.00312109)
(0.00312525 -0.00141152 -0 0.00312518 -0 0.00312521)
(0.00302599 -0.00134963 -0 0.00302598 -0 0.00302599)
(0.0030227 -0.00134538 -0 0.00302279 -0 0.00302275)
(0.00302274 -0.00134978 -0 0.00302276 -0 0.00302275)
(0.00302669 -0.00136305 -0 0.00302661 -0 0.00302665)
(0.00292588 -0.00130073 -0 0.00292591 -0 0.0029259)
(0.00292277 -0.00129654 -0 0.00292288 -0 0.00292283)
(0.00292286 -0.00130101 -0 0.00292283 -0 0.00292285)
(0.00292657 -0.00131367 -0 0.00292646 -0 0.00292652)
(0.00282422 -0.00125106 -0 0.0028243 -0 0.00282426)
(0.00282132 -0.001247 -0 0.00282143 -0 0.00282137)
(0.00282145 -0.00125131 -0 0.00282136 -0 0.0028214)
(0.00282489 -0.00126337 -0 0.00282477 -0 0.00282483)
(0.00272104 -0.00120066 -0 0.0027212 -0 0.00272112)
(0.00271838 -0.00119678 -0 0.00271848 -0 0.00271843)
(0.00271853 -0.00120066 -0 0.00271837 -0 0.00271845)
(0.00272167 -0.00121218 -0 0.00272157 -0 0.00272162)
(0.00261643 -0.00114957 -0 0.00261663 -0 0.00261654)
(0.00261403 -0.00114599 -0 0.00261408 -0 0.00261405)
(0.00261415 -0.001149 -0 0.00261395 -0 0.00261405)
(0.00261694 -0.00116013 -0 0.00261688 -0 0.00261691)
(0.0025105 -0.00109851 -0 0.0025107 -0 0.0025106)
(0.00250833 -0.0010944 -0 0.00250833 -0 0.00250833)
(0.00250835 -0.0010965 -0 0.00250815 -0 0.00250824)
(0.0025107 -0.00110707 -0 0.00251069 -0 0.0025107)
(0.00240327 -0.0010456 -0 0.00240339 -0 0.00240333)
(0.00240135 -0.00104239 -0 0.00240132 -0 0.00240133)
(0.00240112 -0.00104234 -0 0.00240099 -0 0.00240105)
(0.002403 -0.00105365 -0 0.00240304 -0 0.00240302)
(0.00229475 -0.000991268 -0 0.00229478 -0 0.00229476)
(0.00229311 -0.000988705 -0 0.00229306 -0 0.00229308)
(0.00229253 -0.000987107 -0 0.00229249 -0 0.00229251)
(0.00229419 -0.00100014 -0 0.00229424 -0 0.00229422)
(0.00218504 -0.00093639 -0 0.00218502 -0 0.00218503)
(0.00218362 -0.000933522 -0 0.00218358 -0 0.0021836)
(0.00218276 -0.000931967 -0 0.00218278 -0 0.00218278)
(0.00218438 -0.000945839 -0 0.00218442 -0 0.0021844)
(0.00207435 -0.000881246 -0 0.00207432 -0 0.00207433)
(0.00207305 -0.000877946 -0 0.00207304 -0 0.00207305)
(0.00207207 -0.000876868 -0 0.0020721 -0 0.00207209)
(0.0020737 -0.000890667 -0 0.00207371 -0 0.0020737)
(0.00196288 -0.000825177 -0 0.00196287 -0 0.00196288)
(0.00196165 -0.000822075 -0 0.00196167 -0 0.00196166)
(0.00196073 -0.000821916 -0 0.00196074 -0 0.00196073)
(0.00196226 -0.000834193 -0 0.00196224 -0 0.00196225)
(0.00185094 -0.00076973 -0 0.00185096 -0 0.00185095)
(0.00184969 -0.000765603 -0 0.00184972 -0 0.0018497)
(0.00184892 -0.000765903 -0 0.00184891 -0 0.00184891)
(0.00185024 -0.000777104 -0 0.00185022 -0 0.00185023)
(0.0017387 -0.000712228 -0 0.00173873 -0 0.00173872)
(0.00173745 -0.000708907 -0 0.00173748 -0 0.00173746)
(0.00173681 -0.000708785 -0 0.00173677 -0 0.00173679)
(0.00173793 -0.000719748 -0 0.0017379 -0 0.00173792)
(0.00162641 -0.000654515 -0 0.00162644 -0 0.00162643)
(0.00162522 -0.00065159 -0 0.00162525 -0 0.00162524)
(0.0016246 -0.000650616 -0 0.00162456 -0 0.00162458)
(0.00162562 -0.000661817 -0 0.00162559 -0 0.00162561)
(0.00151438 -0.000595254 -0 0.00151439 -0 0.00151439)
(0.00151346 -0.000594735 -0 0.00151349 -0 0.00151348)
(0.00151262 -0.000591302 -0 0.00151261 -0 0.00151261)
(0.0015137 -0.000603414 -0 0.00151367 -0 0.00151369)
(0.0014033 -0.000537369 -0 0.00140326 -0 0.00140328)
(0.00140264 -0.000536511 -0 0.00140266 -0 0.00140265)
(0.00140158 -0.000533686 -0 0.00140162 -0 0.0014016)
(0.0014027 -0.000544417 -0 0.00140267 -0 0.00140268)
(0.00129394 -0.000478928 -0 0.00129387 -0 0.0012939)
(0.00129341 -0.000478498 -0 0.00129343 -0 0.00129342)
(0.00129233 -0.000476657 -0 0.0012924 -0 0.00129237)
(0.00129345 -0.000486227 -0 0.00129343 -0 0.00129344)
(0.00118736 -0.000422658 -0 0.00118731 -0 0.00118733)
(0.00118663 -0.000420035 -0 0.00118669 -0 0.00118666)
(0.00118582 -0.00042013 -0 0.00118587 -0 0.00118585)
(0.00118701 -0.00042855 -0 0.00118694 -0 0.00118698)
(0.00108457 -0.000365332 -0 0.00108454 -0 0.00108456)
(0.00108361 -0.000363801 -0 0.00108371 -0 0.00108367)
(0.00108324 -0.000365007 -0 0.00108326 -0 0.00108324)
(0.00108443 -0.000370565 -0 0.00108434 -0 0.00108438)
(0.000986827 -0.000309579 -0 0.00098682 -0 0.000986827)
(0.000986025 -0.000310255 -0 0.000986099 -0 0.000986063)
(0.00098597 -0.000310787 -0 0.000985977 -0 0.000985969)
(0.000987087 -0.000313817 -0 0.000987013 -0 0.000987049)
(0.000895904 -0.000255332 -0 0.000895904 -0 0.000895904)
(0.000895514 -0.000256288 -0 0.000895542 -0 0.000895527)
(0.000895443 -0.000256761 -0 0.000895443 -0 0.000895443)
(0.000896446 -0.000259259 -0 0.000896418 -0 0.000896433)
(0.00081386 -0.000203064 -0 0.000813865 -0 0.000813864)
(0.000813693 -0.000204604 -0 0.000813688 -0 0.000813689)
(0.00081368 -0.00020451 -0 0.000813675 -0 0.000813675)
(0.000814537 -0.000206947 -0 0.000814543 -0 0.000814541)
(0.000743157 -0.000153798 -0 0.000743163 -0 0.000743161)
(0.000742998 -0.000155503 -0 0.000742983 -0 0.00074299)
(0.000743034 -0.000154635 -0 0.000743028 -0 0.000743029)
(0.000743823 -0.000157505 -0 0.000743838 -0 0.00074383)
(0.000686351 -0.000106459 -0 0.000686358 -0 0.000686356)
(0.000686398 -0.000109191 -0 0.000686387 -0 0.000686394)
(0.000686069 -0.000107169 -0 0.000686062 -0 0.000686065)
(0.000687108 -0.000111011 -0 0.000687118 -0 0.000687112)
(0.000646309 -6.35259e-05 -0 0.000646323 -0 0.000646317)
(0.000646323 -6.508e-05 -0 0.000646322 -0 0.000646322)
(0.000645951 -6.42844e-05 -0 0.000645937 -0 0.000645943)
(0.000647201 -6.66587e-05 -0 0.000647202 -0 0.000647202)
(0.000625674 -2.17919e-05 -0 0.000625697 -0 0.000625687)
(0.000625231 -2.17784e-05 -0 0.000625241 -0 0.000625236)
(0.000625181 -2.18149e-05 -0 0.000625158 -0 0.000625167)
(0.000626501 -2.25181e-05 -0 0.000626491 -0 0.000626496)
)
;

boundaryField
{
    inlet
    {
        type            cyclic;
    }
    outlet
    {
        type            cyclic;
    }
    fixedWalls-bottom
    {
        type            kqRWallFunction;
        value           nonuniform List<symmTensor> 4((2.60727e-08 -0 -0 2.60727e-08 -0 2.60727e-08) (2.61151e-08 -0 -0 2.61151e-08 -0 2.61151e-08) (2.61318e-08 -0 -0 2.61318e-08 -0 2.61318e-08) (2.61272e-08 -0 -0 2.61272e-08 -0 2.61272e-08));
    }
    fixedWalls-top
    {
        type            symmetry;
    }
    frontAndBack
    {
        type            empty;
    }
}


// ************************************************************************* //
