/*--------------------------------*- C++ -*----------------------------------*\
  =========                 |
  \\      /  F ield         | OpenFOAM: The Open Source CFD Toolbox
   \\    /   O peration     | Website:  https://openfoam.org
    \\  /    A nd           | Version:  10
     \\/     M anipulation  |
\*---------------------------------------------------------------------------*/
FoamFile
{
    format      ascii;
    class       volScalarField;
    location    "355";
    object      k;
}
// * * * * * * * * * * * * * * * * * * * * * * * * * * * * * * * * * * * * * //

dimensions      [0 2 -2 0 0 0 0];

internalField   nonuniform List<scalar> 
200
(
1.40359e-06
1.40386e-06
1.40431e-06
1.40425e-06
4.23825e-05
4.23905e-05
4.24042e-05
4.24026e-05
0.000303748
0.000303807
0.000303904
0.000303892
0.00106758
0.0010678
0.00106813
0.00106808
0.00240126
0.00240173
0.00240237
0.00240227
0.00394346
0.00394408
0.00394493
0.00394476
0.0053162
0.00531676
0.00531765
0.0053174
0.00640572
0.00640625
0.00640708
0.00640667
0.00724018
0.00724066
0.00724135
0.00724068
0.00786251
0.00786294
0.00786347
0.00786248
0.00831733
0.00831777
0.0083181
0.00831682
0.00864253
0.00864302
0.00864316
0.00864164
0.00886763
0.00886811
0.00886811
0.00886642
0.00901464
0.00901502
0.00901502
0.00901318
0.00909983
0.00910021
0.00910015
0.00909827
0.00913534
0.00913578
0.00913563
0.00913382
0.00913034
0.00913075
0.00913057
0.00912888
0.00909163
0.00909205
0.00909179
0.00909032
0.00902451
0.0090249
0.00902461
0.00902336
0.00893308
0.00893343
0.00893311
0.00893209
0.00882055
0.00882086
0.00882055
0.00881975
0.00868957
0.0086898
0.00868959
0.00868901
0.00854252
0.00854272
0.00854249
0.00854217
0.00838146
0.0083817
0.00838134
0.0083813
0.00820831
0.00820853
0.00820812
0.00820836
0.00802487
0.00802499
0.00802466
0.00802495
0.00783248
0.00783258
0.00783225
0.00783259
0.0076314
0.00763151
0.00763115
0.0076316
0.0074219
0.00742196
0.00742161
0.00742216
0.0072043
0.00720433
0.00720395
0.00720459
0.00697896
0.006979
0.00697854
0.00697929
0.00674622
0.0067463
0.00674574
0.00674673
0.00650663
0.00650666
0.00650605
0.00650712
0.00626078
0.00626067
0.00626
0.00626097
0.00600893
0.00600892
0.00600823
0.00600915
0.00575228
0.00575224
0.00575147
0.00575235
0.00549155
0.00549157
0.00549058
0.00549146
0.00522777
0.00522772
0.00522673
0.00522759
0.0049623
0.00496218
0.00496123
0.00496206
0.00469672
0.0046966
0.00469575
0.00469653
0.00443309
0.00443304
0.00443225
0.00443304
0.00417379
0.00417394
0.00417325
0.0041741
0.00392242
0.00392256
0.00392215
0.0039228
0.00368264
0.0036827
0.00368247
0.00368295
0.00345875
0.00345885
0.00345854
0.00345909
0.00325603
0.00325633
0.00325585
0.0032567
0.0030808
0.00308114
0.00308056
0.00308147
0.00293966
0.00294009
0.00293939
0.00294031
0.00283946
0.00283997
0.00283925
0.00284018
0.00278665
0.00278725
0.00278655
0.00278752
)
;

boundaryField
{
    inlet
    {
        type            cyclic;
    }
    outlet
    {
        type            cyclic;
    }
    fixedWalls-bottom
    {
        type            kqRWallFunction;
        value           nonuniform List<scalar> 4(1.40359e-06 1.40386e-06 1.40431e-06 1.40425e-06);
    }
    fixedWalls-top
    {
        type            symmetry;
    }
    frontAndBack
    {
        type            empty;
    }
}


// ************************************************************************* //
