/*--------------------------------*- C++ -*----------------------------------*\
  =========                 |
  \\      /  F ield         | OpenFOAM: The Open Source CFD Toolbox
   \\    /   O peration     | Website:  https://openfoam.org
    \\  /    A nd           | Version:  10
     \\/     M anipulation  |
\*---------------------------------------------------------------------------*/
FoamFile
{
    format      ascii;
    class       volScalarField;
    location    "355";
    object      nut;
}
// * * * * * * * * * * * * * * * * * * * * * * * * * * * * * * * * * * * * * //

dimensions      [0 2 -1 0 0 0 0];

internalField   nonuniform List<scalar> 
200
(
8.83645e-10
8.83812e-10
8.84098e-10
8.84064e-10
1.56547e-07
1.56577e-07
1.56627e-07
1.56621e-07
3.26806e-06
3.26874e-06
3.26979e-06
3.26965e-06
2.2601e-05
2.2607e-05
2.26142e-05
2.2613e-05
7.90643e-05
7.90918e-05
7.91149e-05
7.91102e-05
0.000178029
0.000178097
0.000178141
0.00017813
0.00030509
0.000305118
0.000305177
0.000305172
0.000444113
0.000444136
0.000444201
0.000444187
0.000599415
0.000599439
0.000599501
0.000599457
0.000769208
0.000769241
0.000769293
0.000769196
0.000950846
0.000950903
0.00095094
0.000950775
0.00114187
0.00114196
0.00114198
0.00114173
0.00134041
0.00134051
0.00134052
0.00134021
0.00154453
0.00154462
0.00154464
0.00154426
0.00175234
0.00175244
0.00175246
0.00175203
0.00196207
0.00196218
0.00196219
0.00196173
0.002172
0.00217212
0.00217211
0.00217165
0.00238053
0.00238066
0.00238062
0.00238019
0.00258624
0.00258637
0.00258629
0.00258591
0.00278797
0.00278808
0.00278797
0.00278765
0.00298494
0.00298502
0.00298491
0.00298467
0.0031769
0.00317693
0.0031769
0.00317672
0.00336423
0.00336426
0.00336432
0.00336414
0.00354769
0.00354782
0.00354794
0.00354757
0.00372756
0.0037278
0.00372794
0.00372719
0.00390146
0.00390173
0.00390178
0.00390076
0.00405964
0.00406004
0.00405962
0.00406033
0.00418138
0.00418219
0.00418177
0.00418555
0.00429282
0.00429222
0.00429341
0.00429694
0.00439162
0.00439284
0.00439217
0.00439709
0.00447851
0.00448069
0.0044792
0.00448577
0.00455242
0.00455673
0.004553
0.00456326
0.0046157
0.00462049
0.00461634
0.00462806
0.004667
0.0046722
0.00466782
0.00468055
0.00470603
0.0047115
0.00470734
0.00472074
0.00473346
0.00473781
0.00473476
0.00474837
0.0047508
0.00474926
0.00474911
0.00476329
0.00475185
0.00475056
0.00474989
0.00476527
0.00473835
0.00474016
0.004737
0.00475402
0.00470785
0.00471742
0.00471076
0.0047293
0.00466827
0.00467866
0.00467083
0.00469116
0.00461634
0.00462711
0.00461926
0.0046391
0.00455449
0.00456197
0.00456292
0.00457328
0.00448835
0.0044906
0.0044919
0.00450172
0.00441018
0.00441236
0.00441539
0.00442542
0.00432713
0.00432624
0.00433885
0.00434799
0.00426063
0.00426179
0.00426345
0.00427535
0.00419693
0.00420223
0.00420287
0.00421473
0.00415236
0.00416064
0.00416145
0.00417396
0.00413218
0.00414599
0.00414774
0.00416163
)
;

boundaryField
{
    inlet
    {
        type            cyclic;
    }
    outlet
    {
        type            cyclic;
    }
    fixedWalls-bottom
    {
        type            nutkWallFunction;
        Cmu             0.09;
        kappa           0.41;
        E               9.8;
        value           uniform 0;
    }
    fixedWalls-top
    {
        type            symmetry;
    }
    frontAndBack
    {
        type            empty;
    }
}


// ************************************************************************* //
