/*--------------------------------*- C++ -*----------------------------------*\
  =========                 |
  \\      /  F ield         | OpenFOAM: The Open Source CFD Toolbox
   \\    /   O peration     | Website:  https://openfoam.org
    \\  /    A nd           | Version:  10
     \\/     M anipulation  |
\*---------------------------------------------------------------------------*/
FoamFile
{
    format      ascii;
    class       volScalarField;
    location    "355";
    object      omega;
}
// * * * * * * * * * * * * * * * * * * * * * * * * * * * * * * * * * * * * * //

dimensions      [0 0 -1 0 0 0 0];

internalField   nonuniform List<scalar> 
200
(
1588.41
1588.41
1588.41
1588.41
270.734
270.733
270.733
270.733
92.9444
92.9431
92.9429
92.9432
47.2362
47.2331
47.2324
47.2331
30.371
30.3664
30.3656
30.3661
22.1507
22.1457
22.145
22.1454
17.2492
17.245
17.2446
17.2449
13.9508
13.9481
13.9478
13.9482
11.5634
11.5619
11.5619
11.563
9.75722
9.75729
9.757
9.75915
8.3513
8.35218
8.35188
8.35506
7.23419
7.23468
7.23487
7.2388
6.33063
6.33138
6.33258
6.33638
5.58977
5.59299
5.59196
5.59734
4.97734
4.98012
4.97942
4.98477
4.46604
4.46717
4.46778
4.4722
4.03362
4.03621
4.03547
4.04015
3.66829
3.66921
3.66977
3.67282
3.35515
3.35631
3.35672
3.35874
3.08563
3.08645
3.08698
3.08845
2.85214
2.85225
2.85321
2.85425
2.64853
2.64864
2.64909
2.64989
2.46975
2.46988
2.47027
2.47024
2.31146
2.3116
2.31183
2.31148
2.17043
2.17045
2.17063
2.16997
2.04384
2.04377
2.04392
2.04295
1.92935
1.92919
1.9293
1.92807
1.82509
1.82476
1.82486
1.82332
1.72891
1.72916
1.7286
1.72731
1.64047
1.64002
1.64018
1.63849
1.55832
1.55757
1.55799
1.55588
1.4819
1.48051
1.4816
1.47849
1.40967
1.40822
1.40935
1.40601
1.3415
1.33998
1.3411
1.33766
1.27686
1.27537
1.27635
1.27293
1.21524
1.21411
1.21473
1.21144
1.15592
1.1563
1.15613
1.15287
1.10016
1.10044
1.10039
1.09702
1.04726
1.04684
1.04734
1.04376
0.997635
0.995586
0.996814
0.993071
0.94962
0.947502
0.948921
0.944978
0.904135
0.902062
0.903447
0.899764
0.86122
0.859838
0.85957
0.857764
0.820488
0.820091
0.819802
0.818121
0.784264
0.783901
0.783291
0.781641
0.752469
0.752693
0.750395
0.749013
0.723086
0.72297
0.722551
0.720755
0.700433
0.699649
0.699377
0.697628
0.683819
0.682581
0.682274
0.680452
0.674378
0.672277
0.671823
0.669815
)
;

boundaryField
{
    inlet
    {
        type            cyclic;
    }
    outlet
    {
        type            cyclic;
    }
    fixedWalls-bottom
    {
        beta1           0.075;
        blended         0;
        type            omegaWallFunction;
        value           nonuniform List<scalar> 4(1588.41 1588.41 1588.41 1588.41);
    }
    fixedWalls-top
    {
        type            symmetry;
    }
    frontAndBack
    {
        type            empty;
    }
}


// ************************************************************************* //
