/*--------------------------------*- C++ -*----------------------------------*\
  =========                 |
  \\      /  F ield         | OpenFOAM: The Open Source CFD Toolbox
   \\    /   O peration     | Website:  https://openfoam.org
    \\  /    A nd           | Version:  10
     \\/     M anipulation  |
\*---------------------------------------------------------------------------*/
FoamFile
{
    format      ascii;
    class       volScalarField;
    location    "355";
    object      p;
}
// * * * * * * * * * * * * * * * * * * * * * * * * * * * * * * * * * * * * * //

dimensions      [0 2 -2 0 0 0 0];

internalField   nonuniform List<scalar> 
200
(
-7.67642e-11
-6.38101e-07
-2.95609e-07
3.32498e-07
6.16128e-10
-6.39057e-07
-2.96542e-07
3.3346e-07
1.7861e-09
-6.40192e-07
-2.97755e-07
3.34622e-07
3.06866e-09
-6.40221e-07
-2.99034e-07
3.34687e-07
3.75119e-09
-6.35776e-07
-2.99738e-07
3.30289e-07
3.26088e-09
-6.24225e-07
-2.99287e-07
3.18791e-07
1.52269e-09
-6.10508e-07
-2.97604e-07
3.0514e-07
-8.87935e-11
-5.9954e-07
-2.96049e-07
2.94241e-07
1.04019e-09
-5.90274e-07
-2.97248e-07
2.85054e-07
7.27608e-09
-5.82065e-07
-3.03552e-07
2.76926e-07
1.98366e-08
-5.74387e-07
-3.16192e-07
2.69334e-07
3.8845e-08
-5.66734e-07
-3.35275e-07
2.61767e-07
6.33059e-08
-5.59124e-07
-3.59816e-07
2.54241e-07
9.15971e-08
-5.51797e-07
-3.88183e-07
2.46999e-07
1.2246e-07
-5.4473e-07
-4.1912e-07
2.40008e-07
1.55324e-07
-5.37858e-07
-4.52055e-07
2.33214e-07
1.89553e-07
-5.31479e-07
-4.86345e-07
2.26899e-07
2.24566e-07
-5.26002e-07
-5.21419e-07
2.21489e-07
2.60053e-07
-5.21911e-07
-5.56957e-07
2.17446e-07
2.95671e-07
-5.1958e-07
-5.92628e-07
2.15173e-07
3.30603e-07
-5.19025e-07
-6.27601e-07
2.14654e-07
3.63311e-07
-5.1944e-07
-6.60359e-07
2.15119e-07
3.93672e-07
-5.19051e-07
-6.90762e-07
2.14762e-07
4.25623e-07
-5.15427e-07
-7.22771e-07
2.1119e-07
4.67284e-07
-5.07679e-07
-7.64493e-07
2.03485e-07
5.22632e-07
-4.9946e-07
-8.19921e-07
1.95326e-07
5.71155e-07
-4.96766e-07
-8.68542e-07
1.92678e-07
5.71115e-07
-4.96339e-07
-8.68615e-07
1.92303e-07
5.22206e-07
-4.9177e-07
-8.19843e-07
1.8781e-07
4.67575e-07
-4.85012e-07
-7.65356e-07
1.81154e-07
4.1686e-07
-4.77893e-07
-7.14815e-07
1.74148e-07
3.50877e-07
-4.72648e-07
-6.49004e-07
1.69015e-07
2.65349e-07
-4.6927e-07
-5.63664e-07
1.65753e-07
1.6674e-07
-4.62592e-07
-4.65234e-07
1.5919e-07
5.75092e-08
-4.47192e-07
-3.56175e-07
1.43873e-07
-7.04143e-08
-4.28976e-07
-2.2841e-07
1.25736e-07
-2.37539e-07
-4.39418e-07
-6.14068e-08
1.3627e-07
-4.34349e-07
-4.81693e-07
1.35278e-07
1.78732e-07
-6.20737e-07
-5.19254e-07
3.21587e-07
2.16418e-07
-7.7523e-07
-5.1593e-07
4.75988e-07
2.13155e-07
-9.08208e-07
-4.84694e-07
6.08911e-07
1.81891e-07
-1.0292e-06
-4.52721e-07
7.29825e-07
1.49925e-07
-1.13446e-06
-3.91668e-07
8.35056e-07
8.88202e-08
-1.22222e-06
-3.30953e-07
9.22762e-07
2.81025e-08
-1.31196e-06
-2.90359e-07
1.01247e-06
-1.24645e-08
-1.44427e-06
-2.28422e-07
1.14478e-06
-7.43688e-08
-1.56012e-06
-1.80994e-07
1.26061e-06
-1.21758e-07
-1.61681e-06
-1.58851e-07
1.31727e-06
-1.43866e-07
-1.65404e-06
-1.31383e-07
1.3545e-06
-1.71337e-07
-1.68192e-06
-1.04433e-07
1.38241e-06
-1.98312e-07
)
;

boundaryField
{
    inlet
    {
        type            cyclic;
    }
    outlet
    {
        type            cyclic;
    }
    fixedWalls-bottom
    {
        type            zeroGradient;
    }
    fixedWalls-top
    {
        type            symmetry;
    }
    frontAndBack
    {
        type            empty;
    }
}


// ************************************************************************* //
