/*--------------------------------*- C++ -*----------------------------------*\
  =========                 |
  \\      /  F ield         | OpenFOAM: The Open Source CFD Toolbox
   \\    /   O peration     | Website:  https://openfoam.org
    \\  /    A nd           | Version:  10
     \\/     M anipulation  |
\*---------------------------------------------------------------------------*/
FoamFile
{
    format      ascii;
    class       surfaceScalarField;
    location    "355";
    object      phi;
}
// * * * * * * * * * * * * * * * * * * * * * * * * * * * * * * * * * * * * * //

dimensions      [0 3 -1 0 0 0 0];

internalField   nonuniform List<scalar> 
346
(
0.000840645
1.45785e-08
0.000840651
-7.82033e-09
0.00084066
-1.075e-08
7.35231e-09
0.0026026
4.81091e-08
0.00260263
-3.8527e-08
0.00260266
-4.53006e-08
3.67474e-08
0.0044917
1.04028e-07
0.00449175
-9.20626e-08
0.0044918
-1.01227e-07
8.99772e-08
0.00647279
1.77261e-07
0.00647287
-1.72512e-07
0.00647294
-1.74155e-07
1.69558e-07
0.00844338
2.43671e-07
0.00844346
-2.53698e-07
0.00844353
-2.40656e-07
2.50837e-07
0.0102905
2.8256e-07
0.0102906
-2.9715e-07
0.0102906
-2.79182e-07
2.93868e-07
0.0119788
2.80708e-07
0.0119788
-3.16637e-07
0.0119788
-2.77622e-07
3.13655e-07
0.0135356
2.44302e-07
0.0135357
-3.43861e-07
0.0135356
-2.41058e-07
3.40757e-07
0.0149942
1.85334e-07
0.0149942
-3.81603e-07
0.0149941
-1.82419e-07
3.78809e-07
0.016378
1.19546e-07
0.016378
-4.28035e-07
0.016378
-1.16649e-07
4.25313e-07
0.0177071
5.72885e-08
0.0177071
-4.76249e-07
0.017707
-5.47169e-08
4.73819e-07
0.0189979
5.77702e-09
0.0189979
-5.19679e-07
0.0189979
-3.36485e-09
5.17469e-07
0.0202637
-3.3085e-08
0.0202637
-5.54222e-07
0.0202637
3.5261e-08
5.52213e-07
0.0215152
-6.17797e-08
0.0215152
-5.78602e-07
0.0215152
6.36897e-08
5.76915e-07
0.022761
-8.34345e-08
0.022761
-5.93247e-07
0.022761
8.5189e-08
5.91678e-07
0.0240084
-1.00719e-07
0.0240084
-5.9783e-07
0.0240084
1.02117e-07
5.96657e-07
0.0252633
-1.14529e-07
0.0252633
-5.94444e-07
0.0252633
1.1588e-07
5.93286e-07
0.0265309
-1.27107e-07
0.0265308
-5.83947e-07
0.0265308
1.28058e-07
5.83211e-07
0.0278155
-1.37716e-07
0.0278155
-5.7e-07
0.0278154
1.38743e-07
5.69168e-07
0.029121
-1.47885e-07
0.029121
-5.54137e-07
0.029121
1.48533e-07
5.53701e-07
0.0304508
-1.57461e-07
0.0304508
-5.40182e-07
0.0304508
1.58269e-07
5.39577e-07
0.031808
-1.71988e-07
0.031808
-5.27063e-07
0.0318079
1.72517e-07
5.26767e-07
0.0331949
-1.94301e-07
0.0331949
-5.11962e-07
0.0331949
1.95088e-07
5.11413e-07
0.0346139
-2.22065e-07
0.0346139
-4.82504e-07
0.0346139
2.22783e-07
4.82087e-07
0.0360669
-2.33981e-07
0.0360669
-4.25664e-07
0.0360669
2.34942e-07
4.25005e-07
0.0375557
-1.95484e-07
0.0375556
-3.3451e-07
0.0375557
1.96628e-07
3.33768e-07
0.0390826
-9.62013e-08
0.0390825
-2.24731e-07
0.0390826
9.75134e-08
2.2381e-07
0.0406511
3.68664e-09
0.040651
-1.14403e-07
0.0406511
-1.95581e-09
1.13195e-07
0.0422644
4.65212e-08
0.0422642
-9.42892e-09
0.0422643
-4.47687e-08
8.163e-09
0.043924
5.72295e-08
0.0439239
8.59573e-08
0.0439239
-5.49593e-08
-8.75959e-08
0.0456318
7.14238e-08
0.0456317
1.75134e-07
0.0456317
-6.935e-08
-1.76643e-07
0.0473892
8.74665e-08
0.0473892
2.55732e-07
0.0473892
-8.50138e-08
-2.57479e-07
0.0491977
9.88442e-08
0.0491977
3.27306e-07
0.0491977
-9.67007e-08
-3.28833e-07
0.0510585
1.11196e-07
0.0510585
3.96308e-07
0.0510585
-1.09005e-07
-3.97762e-07
0.0529727
1.31566e-07
0.0529726
4.82601e-07
0.0529726
-1.29713e-07
-4.83828e-07
0.0549412
1.68483e-07
0.0549411
5.99719e-07
0.0549411
-1.66973e-07
-6.00515e-07
0.0569647
1.92858e-07
0.0569646
6.84825e-07
0.0569646
-1.91579e-07
-6.85502e-07
0.0590436
1.80659e-07
0.0590436
6.67027e-07
0.0590436
-1.79946e-07
-6.67087e-07
0.0611781
1.56869e-07
0.0611782
5.51841e-07
0.0611782
-1.56202e-07
-5.51968e-07
0.063368
1.54269e-07
0.0633681
4.24031e-07
0.0633681
-1.54099e-07
-4.2365e-07
0.0656126
1.69766e-07
0.0656127
3.30371e-07
0.0656127
-1.69529e-07
-3.30159e-07
0.0679105
1.83701e-07
0.0679106
2.30215e-07
0.0679106
-1.83727e-07
-2.29761e-07
0.0702595
1.9259e-07
0.0702595
1.966e-07
0.0702595
-1.92505e-07
-1.96349e-07
0.0726564
2.21174e-07
0.0726564
2.16417e-07
0.0726564
-2.21164e-07
-2.16137e-07
0.0750966
2.88244e-07
0.0750967
1.96149e-07
0.0750967
-2.88163e-07
-1.96018e-07
0.0775746
2.53806e-07
0.0775746
1.92387e-07
0.0775746
-2.53736e-07
-1.92299e-07
0.0800824
1.49504e-07
0.0800824
1.61905e-07
0.0800823
-1.49431e-07
-1.61882e-07
0.0826102
9.92971e-08
0.0826103
8.38271e-08
0.0826102
-9.92305e-08
-8.38588e-08
0.085147
6.41428e-08
0.0851471
2.50985e-08
0.0851471
-6.41173e-08
-2.51238e-08
0.0876801
0.0876802
0.0876801
)
;

boundaryField
{
    inlet
    {
        type            cyclic;
        value           nonuniform List<scalar> 
50
(
-0.0876801
-0.085147
-0.0826102
-0.0800823
-0.0775746
-0.0750967
-0.0726564
-0.0702595
-0.0679105
-0.0656126
-0.063368
-0.061178
-0.0590436
-0.0569647
-0.0549412
-0.0529727
-0.0510585
-0.0491977
-0.0473893
-0.0456318
-0.043924
-0.0422644
-0.0406512
-0.0390827
-0.0375558
-0.0360669
-0.0346139
-0.0331949
-0.031808
-0.0304508
-0.029121
-0.0278155
-0.0265308
-0.0252633
-0.0240084
-0.022761
-0.0215151
-0.0202636
-0.0189978
-0.017707
-0.0163779
-0.0149941
-0.0135356
-0.0119788
-0.0102906
-0.00844345
-0.00647286
-0.00449175
-0.00260263
-0.000840654
)
;
    }
    outlet
    {
        type            cyclic;
        value           nonuniform List<scalar> 
50
(
0.0876801
0.085147
0.0826102
0.0800823
0.0775746
0.0750967
0.0726564
0.0702595
0.0679105
0.0656126
0.063368
0.061178
0.0590436
0.0569647
0.0549412
0.0529727
0.0510585
0.0491977
0.0473893
0.0456318
0.043924
0.0422644
0.0406512
0.0390827
0.0375558
0.0360669
0.0346139
0.0331949
0.031808
0.0304508
0.029121
0.0278155
0.0265308
0.0252633
0.0240084
0.022761
0.0215151
0.0202636
0.0189978
0.017707
0.0163779
0.0149941
0.0135356
0.0119788
0.0102906
0.00844345
0.00647286
0.00449175
0.00260263
0.000840654
)
;
    }
    fixedWalls-bottom
    {
        type            calculated;
        value           uniform 0;
    }
    fixedWalls-top
    {
        type            symmetry;
        value           uniform 0;
    }
    frontAndBack
    {
        type            empty;
        value           nonuniform List<scalar> 0();
    }
}


// ************************************************************************* //
