/*--------------------------------*- C++ -*----------------------------------*\
  =========                 |
  \\      /  F ield         | OpenFOAM: The Open Source CFD Toolbox
   \\    /   O peration     | Website:  https://openfoam.org
    \\  /    A nd           | Version:  10
     \\/     M anipulation  |
\*---------------------------------------------------------------------------*/
FoamFile
{
    format      ascii;
    class       volSymmTensorField;
    location    "355";
    object      R;
}
// * * * * * * * * * * * * * * * * * * * * * * * * * * * * * * * * * * * * * //

dimensions      [0 2 -2 0 0 0 0];

internalField   nonuniform List<symmTensor> 
200
(
(9.35726e-07 -8.71087e-09 -0 9.35726e-07 -0 9.35726e-07)
(9.35904e-07 -8.71254e-09 -0 9.35904e-07 -0 9.35904e-07)
(9.36206e-07 -8.71551e-09 -0 9.36206e-07 -0 9.36206e-07)
(9.3617e-07 -8.71523e-09 -0 9.3617e-07 -0 9.3617e-07)
(2.8255e-05 -1.52565e-06 -0 2.8255e-05 -0 2.8255e-05)
(2.82603e-05 -1.52595e-06 -0 2.82603e-05 -0 2.82603e-05)
(2.82695e-05 -1.52647e-06 -0 2.82695e-05 -0 2.82695e-05)
(2.82684e-05 -1.52642e-06 -0 2.82684e-05 -0 2.82684e-05)
(0.000202499 -3.10761e-05 -0 0.000202498 -0 0.000202498)
(0.000202538 -3.10828e-05 -0 0.000202538 -0 0.000202538)
(0.000202603 -3.10934e-05 -0 0.000202603 -0 0.000202603)
(0.000202595 -3.10921e-05 -0 0.000202595 -0 0.000202595)
(0.000711723 -0.000201618 -0 0.000711722 -0 0.000711722)
(0.000711866 -0.000201673 -0 0.000711867 -0 0.000711867)
(0.000712083 -0.000201739 -0 0.000712084 -0 0.000712084)
(0.000712054 -0.000201727 -0 0.000712053 -0 0.000712054)
(0.00160084 -0.0006218 -0 0.00160084 -0 0.00160084)
(0.00160116 -0.000622009 -0 0.00160116 -0 0.00160116)
(0.00160158 -0.000622184 -0 0.00160158 -0 0.00160158)
(0.00160152 -0.00062214 -0 0.00160151 -0 0.00160151)
(0.00262897 -0.0011707 -0 0.00262897 -0 0.00262897)
(0.00262939 -0.00117113 -0 0.00262939 -0 0.00262939)
(0.00262995 -0.00117139 -0 0.00262995 -0 0.00262995)
(0.00262984 -0.0011713 -0 0.00262984 -0 0.00262984)
(0.00354413 -0.00164802 -0 0.00354413 -0 0.00354413)
(0.0035445 -0.00164819 -0 0.00354451 -0 0.0035445)
(0.0035451 -0.00164847 -0 0.0035451 -0 0.0035451)
(0.00354493 -0.00164839 -0 0.00354493 -0 0.00354493)
(0.00427048 -0.00198578 -0 0.00427049 -0 0.00427048)
(0.00427083 -0.00198594 -0 0.00427083 -0 0.00427083)
(0.00427139 -0.0019862 -0 0.00427138 -0 0.00427139)
(0.00427111 -0.00198607 -0 0.00427111 -0 0.00427111)
(0.00482678 -0.00224451 -0 0.0048268 -0 0.00482679)
(0.0048271 -0.00224465 -0 0.00482711 -0 0.0048271)
(0.00482757 -0.00224487 -0 0.00482756 -0 0.00482757)
(0.00482712 -0.00224466 -0 0.00482712 -0 0.00482712)
(0.00524167 -0.00243768 -0 0.00524168 -0 0.00524168)
(0.00524195 -0.00243781 -0 0.00524197 -0 0.00524196)
(0.00524232 -0.00243798 -0 0.0052423 -0 0.00524231)
(0.00524166 -0.00243767 -0 0.00524165 -0 0.00524165)
(0.00554487 -0.00257874 -0 0.00554489 -0 0.00554488)
(0.00554517 -0.00257888 -0 0.00554519 -0 0.00554518)
(0.00554541 -0.00257898 -0 0.00554539 -0 0.0055454)
(0.00554455 -0.00257859 -0 0.00554454 -0 0.00554454)
(0.00576168 -0.00267931 -0 0.0057617 -0 0.00576169)
(0.00576201 -0.00267946 -0 0.00576202 -0 0.00576201)
(0.00576212 -0.0026795 -0 0.0057621 -0 0.00576211)
(0.0057611 -0.00267903 -0 0.00576109 -0 0.00576109)
(0.00591175 -0.00274901 -0 0.00591176 -0 0.00591176)
(0.00591207 -0.00274916 -0 0.00591208 -0 0.00591207)
(0.00591208 -0.00274916 -0 0.00591207 -0 0.00591208)
(0.00591095 -0.00274863 -0 0.00591094 -0 0.00591095)
(0.00600976 -0.00279456 -0 0.00600977 -0 0.00600976)
(0.00601001 -0.00279467 -0 0.00601002 -0 0.00601002)
(0.00601002 -0.00279467 -0 0.00601001 -0 0.00601002)
(0.00600879 -0.0027941 -0 0.00600878 -0 0.00600879)
(0.00606654 -0.00282095 -0 0.00606656 -0 0.00606655)
(0.0060668 -0.00282107 -0 0.00606681 -0 0.00606681)
(0.00606677 -0.00282105 -0 0.00606676 -0 0.00606677)
(0.00606552 -0.00282047 -0 0.00606551 -0 0.00606551)
(0.00609022 -0.00283196 -0 0.00609023 -0 0.00609023)
(0.00609052 -0.00283209 -0 0.00609052 -0 0.00609052)
(0.00609042 -0.00283205 -0 0.00609041 -0 0.00609042)
(0.00608921 -0.00283149 -0 0.00608921 -0 0.00608921)
(0.00608689 -0.00283041 -0 0.0060869 -0 0.0060869)
(0.00608717 -0.00283053 -0 0.00608716 -0 0.00608717)
(0.00608705 -0.00283048 -0 0.00608704 -0 0.00608705)
(0.00608592 -0.00282995 -0 0.00608592 -0 0.00608592)
(0.00606108 -0.0028184 -0 0.00606109 -0 0.00606108)
(0.00606137 -0.00281854 -0 0.00606136 -0 0.00606137)
(0.0060612 -0.00281846 -0 0.00606119 -0 0.0060612)
(0.00606021 -0.002818 -0 0.00606021 -0 0.00606021)
(0.00601634 -0.0027976 -0 0.00601634 -0 0.00601634)
(0.00601661 -0.00279772 -0 0.0060166 -0 0.0060166)
(0.00601641 -0.00279763 -0 0.0060164 -0 0.0060164)
(0.00601557 -0.00279724 -0 0.00601558 -0 0.00601557)
(0.00595538 -0.00276925 -0 0.00595539 -0 0.00595538)
(0.00595562 -0.00276936 -0 0.00595561 -0 0.00595562)
(0.00595541 -0.00276927 -0 0.0059554 -0 0.00595541)
(0.00595472 -0.00276895 -0 0.00595473 -0 0.00595472)
(0.00588036 -0.00273437 -0 0.00588037 -0 0.00588037)
(0.00588058 -0.00273447 -0 0.00588057 -0 0.00588057)
(0.00588037 -0.00273437 -0 0.00588037 -0 0.00588037)
(0.00587983 -0.00273412 -0 0.00587984 -0 0.00587983)
(0.00579304 -0.00269377 -0 0.00579305 -0 0.00579304)
(0.00579321 -0.00269384 -0 0.0057932 -0 0.0057932)
(0.00579307 -0.00269377 -0 0.00579306 -0 0.00579306)
(0.00579267 -0.00269359 -0 0.00579268 -0 0.00579268)
(0.005695 -0.00264818 -0 0.00569502 -0 0.00569501)
(0.00569515 -0.00264824 -0 0.00569514 -0 0.00569515)
(0.005695 -0.00264817 -0 0.00569498 -0 0.00569499)
(0.00569478 -0.00264807 -0 0.00569479 -0 0.00569478)
(0.00558763 -0.00259825 -0 0.00558765 -0 0.00558764)
(0.00558781 -0.00259833 -0 0.00558779 -0 0.0055878)
(0.00558757 -0.00259821 -0 0.00558755 -0 0.00558756)
(0.00558752 -0.0025982 -0 0.00558754 -0 0.00558753)
(0.0054722 -0.00254457 -0 0.00547221 -0 0.0054722)
(0.00547238 -0.00254464 -0 0.00547233 -0 0.00547235)
(0.00547208 -0.00254452 -0 0.00547208 -0 0.00547208)
(0.00547222 -0.00254459 -0 0.00547226 -0 0.00547224)
(0.00534993 -0.00248771 -0 0.00534989 -0 0.00534991)
(0.00535003 -0.00248775 -0 0.00534996 -0 0.00534999)
(0.00534975 -0.00248764 -0 0.00534979 -0 0.00534977)
(0.00534993 -0.00248773 -0 0.00535 -0 0.00534996)
(0.00522169 -0.00242747 -0 0.00522162 -0 0.00522165)
(0.00522177 -0.00242761 -0 0.00522168 -0 0.00522172)
(0.00522146 -0.00242739 -0 0.00522154 -0 0.0052215)
(0.00522168 -0.0024281 -0 0.00522178 -0 0.00522173)
(0.00508764 -0.00235595 -0 0.00508757 -0 0.0050876)
(0.00508772 -0.00235656 -0 0.00508763 -0 0.00508767)
(0.00508739 -0.00235623 -0 0.00508747 -0 0.00508744)
(0.00508769 -0.00235813 -0 0.00508778 -0 0.00508773)
(0.00494795 -0.00228519 -0 0.00494791 -0 0.00494794)
(0.00494801 -0.00228528 -0 0.00494793 -0 0.00494797)
(0.00494772 -0.00228561 -0 0.00494776 -0 0.00494774)
(0.00494806 -0.00228731 -0 0.00494815 -0 0.0049481)
(0.00480287 -0.00221073 -0 0.00480286 -0 0.00480287)
(0.00480293 -0.00221163 -0 0.00480285 -0 0.00480289)
(0.00480263 -0.00221112 -0 0.00480264 -0 0.00480263)
(0.00480302 -0.00221362 -0 0.0048031 -0 0.00480306)
(0.00465264 -0.00213326 -0 0.00465263 -0 0.00465264)
(0.0046527 -0.00213428 -0 0.00465263 -0 0.00465267)
(0.00465235 -0.00213368 -0 0.00465236 -0 0.00465236)
(0.00465283 -0.00213672 -0 0.0046529 -0 0.00465286)
(0.00449748 -0.00205223 -0 0.00449747 -0 0.00449748)
(0.00449756 -0.00205392 -0 0.0044975 -0 0.00449753)
(0.00449715 -0.00205259 -0 0.00449717 -0 0.00449716)
(0.00449779 -0.00205685 -0 0.00449786 -0 0.00449782)
(0.00433776 -0.00196862 -0 0.00433775 -0 0.00433775)
(0.0043378 -0.00197031 -0 0.00433774 -0 0.00433777)
(0.00433736 -0.00196896 -0 0.00433737 -0 0.00433737)
(0.00433805 -0.00197352 -0 0.00433811 -0 0.00433808)
(0.00417386 -0.00188189 -0 0.00417384 -0 0.00417385)
(0.00417381 -0.00188359 -0 0.00417375 -0 0.00417378)
(0.00417333 -0.00188217 -0 0.00417334 -0 0.00417333)
(0.00417395 -0.00188699 -0 0.00417401 -0 0.00417398)
(0.00400596 -0.00179206 -0 0.00400594 -0 0.00400595)
(0.00400598 -0.0017937 -0 0.00400591 -0 0.00400595)
(0.00400548 -0.00179238 -0 0.0040055 -0 0.00400549)
(0.00400606 -0.00179731 -0 0.00400613 -0 0.0040061)
(0.00383487 -0.00169916 -0 0.00383484 -0 0.00383485)
(0.00383487 -0.00170068 -0 0.00383479 -0 0.00383483)
(0.0038343 -0.00169964 -0 0.00383432 -0 0.00383431)
(0.00383486 -0.00170448 -0 0.00383494 -0 0.0038349)
(0.00366104 -0.00160382 -0 0.00366103 -0 0.00366103)
(0.00366107 -0.00160396 -0 0.00366102 -0 0.00366104)
(0.00366038 -0.00160374 -0 0.00366039 -0 0.00366039)
(0.00366095 -0.00160851 -0 0.003661 -0 0.00366098)
(0.00348518 -0.00150451 -0 0.00348518 -0 0.00348518)
(0.00348514 -0.0015049 -0 0.00348515 -0 0.00348515)
(0.00348449 -0.00150457 -0 0.00348449 -0 0.00348449)
(0.00348506 -0.00150939 -0 0.00348505 -0 0.00348506)
(0.00330819 -0.00140218 -0 0.00330821 -0 0.0033082)
(0.00330808 -0.00140292 -0 0.00330816 -0 0.00330813)
(0.0033075 -0.00140212 -0 0.00330748 -0 0.00330749)
(0.00330808 -0.00140705 -0 0.003308 -0 0.00330804)
(0.00313114 -0.00129587 -0 0.00313115 -0 0.00313114)
(0.00313102 -0.00129806 -0 0.00313111 -0 0.00313107)
(0.0031305 -0.00129658 -0 0.0031305 -0 0.0031305)
(0.00313107 -0.00130145 -0 0.00313098 -0 0.00313102)
(0.00295539 -0.0011873 -0 0.00295539 -0 0.00295539)
(0.00295532 -0.00118937 -0 0.00295539 -0 0.00295535)
(0.00295483 -0.00118785 -0 0.00295484 -0 0.00295483)
(0.0029554 -0.00119259 -0 0.00295532 -0 0.00295536)
(0.00278253 -0.00107543 -0 0.00278252 -0 0.00278253)
(0.0027826 -0.00107755 -0 0.00278265 -0 0.00278263)
(0.00278217 -0.00107594 -0 0.00278217 -0 0.00278217)
(0.00278276 -0.00108032 -0 0.00278271 -0 0.00278273)
(0.00261495 -0.000960479 -0 0.00261494 -0 0.00261495)
(0.00261503 -0.000961952 -0 0.00261505 -0 0.00261504)
(0.00261476 -0.000961945 -0 0.00261477 -0 0.00261476)
(0.00261521 -0.000964368 -0 0.00261519 -0 0.0026152)
(0.0024551 -0.000843078 -0 0.00245508 -0 0.00245509)
(0.00245513 -0.000843628 -0 0.00245513 -0 0.00245513)
(0.00245497 -0.000843705 -0 0.00245499 -0 0.00245498)
(0.0024553 -0.000845845 -0 0.0024553 -0 0.0024553)
(0.00230584 -0.000721654 -0 0.00230582 -0 0.00230583)
(0.0023059 -0.000722261 -0 0.0023059 -0 0.0023059)
(0.00230568 -0.000722555 -0 0.0023057 -0 0.00230569)
(0.00230606 -0.000724266 -0 0.00230606 -0 0.00230606)
(0.00217068 -0.000596765 -0 0.00217069 -0 0.00217069)
(0.00217089 -0.000596953 -0 0.00217089 -0 0.00217089)
(0.00217058 -0.000598393 -0 0.00217056 -0 0.00217056)
(0.00217114 -0.000599606 -0 0.00217113 -0 0.00217113)
(0.00205384 -0.000470169 -0 0.00205389 -0 0.00205387)
(0.00205409 -0.000470419 -0 0.00205411 -0 0.00205409)
(0.00205373 -0.000470611 -0 0.00205369 -0 0.0020537)
(0.00205433 -0.000471884 -0 0.0020543 -0 0.00205432)
(0.00195976 -0.000339563 -0 0.00195979 -0 0.00195978)
(0.00196004 -0.000339908 -0 0.00196007 -0 0.00196006)
(0.00195961 -0.000340088 -0 0.00195958 -0 0.0019596)
(0.00196023 -0.000341044 -0 0.00196019 -0 0.00196021)
(0.00189296 -0.000206034 -0 0.00189299 -0 0.00189297)
(0.0018933 -0.000206335 -0 0.00189333 -0 0.00189331)
(0.00189284 -0.000206386 -0 0.00189282 -0 0.00189283)
(0.00189347 -0.000206986 -0 0.00189344 -0 0.00189345)
(0.00185775 -6.92576e-05 -0 0.00185778 -0 0.00185777)
(0.00185816 -6.94407e-05 -0 0.00185818 -0 0.00185817)
(0.00185771 -6.94553e-05 -0 0.00185768 -0 0.0018577)
(0.00185836 -6.96666e-05 -0 0.00185834 -0 0.00185835)
)
;

boundaryField
{
    inlet
    {
        type            cyclic;
    }
    outlet
    {
        type            cyclic;
    }
    fixedWalls-bottom
    {
        type            kqRWallFunction;
        value           nonuniform List<symmTensor> 4((9.35726e-07 -0 -0 9.35726e-07 -0 9.35726e-07) (9.35904e-07 -0 -0 9.35904e-07 -0 9.35904e-07) (9.36206e-07 -0 -0 9.36206e-07 -0 9.36206e-07) (9.3617e-07 -0 -0 9.3617e-07 -0 9.3617e-07));
    }
    fixedWalls-top
    {
        type            symmetry;
    }
    frontAndBack
    {
        type            empty;
    }
}


// ************************************************************************* //
