/*--------------------------------*- C++ -*----------------------------------*\
  =========                 |
  \\      /  F ield         | OpenFOAM: The Open Source CFD Toolbox
   \\    /   O peration     | Website:  https://openfoam.org
    \\  /    A nd           | Version:  10
     \\/     M anipulation  |
\*---------------------------------------------------------------------------*/
FoamFile
{
    format      ascii;
    class       volVectorField;
    location    "355";
    object      U;
}
// * * * * * * * * * * * * * * * * * * * * * * * * * * * * * * * * * * * * * //

dimensions      [0 1 -1 0 0 0 0];

internalField   nonuniform List<vector> 
200
(
(0.0456239 3.27921e-09 0)
(0.0456239 -3.47507e-10 0)
(0.0456247 -1.34259e-09 0)
(0.045625 2.71726e-10 0)
(0.13731 2.68447e-08 0)
(0.13731 -1.90868e-08 0)
(0.137313 -2.30831e-08 0)
(0.137313 1.78124e-08 0)
(0.230365 7.1759e-08 0)
(0.230366 -6.3345e-08 0)
(0.23037 -6.87242e-08 0)
(0.230371 6.14026e-08 0)
(0.322708 1.40654e-07 0)
(0.32271 -1.35999e-07 0)
(0.322716 -1.3768e-07 0)
(0.322717 1.33436e-07 0)
(0.409212 2.15983e-07 0)
(0.409213 -2.15959e-07 0)
(0.40922 -2.12958e-07 0)
(0.40922 2.13026e-07 0)
(0.484824 2.71783e-07 0)
(0.484823 -2.68882e-07 0)
(0.484828 -2.68589e-07 0)
(0.484827 2.65792e-07 0)
(0.548621 2.8798e-07 0)
(0.54862 -3.08904e-07 0)
(0.548623 -2.84767e-07 0)
(0.54862 3.05787e-07 0)
(0.60263 2.66654e-07 0)
(0.602631 -3.2935e-07 0)
(0.602632 -2.63495e-07 0)
(0.602628 3.26309e-07 0)
(0.648943 2.16844e-07 0)
(0.648945 -3.61193e-07 0)
(0.648946 -2.13782e-07 0)
(0.64894 3.58256e-07 0)
(0.689061 1.52661e-07 0)
(0.689064 -4.04735e-07 0)
(0.689064 -1.49763e-07 0)
(0.689058 4.01983e-07 0)
(0.724196 8.73407e-08 0)
(0.7242 -4.53544e-07 0)
(0.7242 -8.46185e-08 0)
(0.724195 4.50977e-07 0)
(0.755315 3.00131e-08 0)
(0.755317 -5.00274e-07 0)
(0.755318 -2.75284e-08 0)
(0.755313 4.9796e-07 0)
(0.783168 -1.52013e-08 0)
(0.78317 -5.3999e-07 0)
(0.783171 1.74884e-08 0)
(0.783167 5.37886e-07 0)
(0.808341 -4.91379e-08 0)
(0.808343 -5.69606e-07 0)
(0.808343 5.1175e-08 0)
(0.80834 5.67763e-07 0)
(0.831294 -7.38052e-08 0)
(0.831296 -5.88797e-07 0)
(0.831295 7.56339e-08 0)
(0.831294 5.87171e-07 0)
(0.852392 -9.27071e-08 0)
(0.852393 -5.97904e-07 0)
(0.852392 9.42795e-08 0)
(0.852392 5.96537e-07 0)
(0.871926 -1.08124e-07 0)
(0.871926 -5.98031e-07 0)
(0.871925 1.09498e-07 0)
(0.871925 5.96866e-07 0)
(0.89013 -1.21222e-07 0)
(0.890131 -5.90387e-07 0)
(0.89013 1.22372e-07 0)
(0.89013 5.89443e-07 0)
(0.907198 -1.32731e-07 0)
(0.907198 -5.77524e-07 0)
(0.907197 1.33722e-07 0)
(0.907197 5.7674e-07 0)
(0.923283 -1.42614e-07 0)
(0.923283 -5.621e-07 0)
(0.923282 1.43454e-07 0)
(0.923283 5.61467e-07 0)
(0.938515 -1.51766e-07 0)
(0.938515 -5.47127e-07 0)
(0.938514 1.52495e-07 0)
(0.938514 5.46606e-07 0)
(0.952995 -1.63846e-07 0)
(0.952995 -5.34423e-07 0)
(0.952994 1.64515e-07 0)
(0.952994 5.33971e-07 0)
(0.966806 -1.83898e-07 0)
(0.966807 -5.22114e-07 0)
(0.966805 1.84555e-07 0)
(0.966806 5.2169e-07 0)
(0.980013 -2.12395e-07 0)
(0.980014 -5.01817e-07 0)
(0.980011 2.13145e-07 0)
(0.980012 5.01332e-07 0)
(0.992666 -2.33983e-07 0)
(0.992666 -4.5996e-07 0)
(0.992663 2.34818e-07 0)
(0.992666 4.59425e-07 0)
(1.00481 -2.1417e-07 0)
(1.00481 -3.85786e-07 0)
(1.0048 2.15222e-07 0)
(1.00481 3.85087e-07 0)
(1.01649 -1.41972e-07 0)
(1.01649 -2.85406e-07 0)
(1.01649 1.432e-07 0)
(1.0165 2.84564e-07 0)
(1.02779 -5.2451e-08 0)
(1.02779 -1.67483e-07 0)
(1.02779 5.39706e-08 0)
(1.0278 1.66416e-07 0)
(1.03877 2.30491e-08 0)
(1.03877 -5.67185e-08 0)
(1.03877 -2.13034e-08 0)
(1.03877 5.54965e-08 0)
(1.04945 6.18008e-08 0)
(1.04945 4.18158e-08 0)
(1.04944 -5.97915e-08 0)
(1.04945 -4.32574e-08 0)
(1.05984 6.90029e-08 0)
(1.05984 1.33514e-07 0)
(1.05983 -6.68314e-08 0)
(1.05984 -1.35093e-07 0)
(1.06995 7.81153e-08 0)
(1.06996 2.16151e-07 0)
(1.06995 -7.58603e-08 0)
(1.06996 -2.17782e-07 0)
(1.0798 9.21244e-08 0)
(1.0798 2.90837e-07 0)
(1.0798 -8.9828e-08 0)
(1.0798 -2.92476e-07 0)
(1.08938 1.05039e-07 0)
(1.08938 3.59073e-07 0)
(1.08938 -1.02875e-07 0)
(1.08938 -3.60565e-07 0)
(1.0987 1.2466e-07 0)
(1.09869 4.41458e-07 0)
(1.09869 -1.22637e-07 0)
(1.09869 -4.42803e-07 0)
(1.10774 1.56614e-07 0)
(1.10773 5.56172e-07 0)
(1.10773 -1.54928e-07 0)
(1.10773 -5.57187e-07 0)
(1.1165 1.69523e-07 0)
(1.11649 6.45848e-07 0)
(1.11649 -1.68124e-07 0)
(1.11649 -6.46596e-07 0)
(1.12496 1.75765e-07 0)
(1.12496 6.87177e-07 0)
(1.12496 -1.74757e-07 0)
(1.12496 -6.87525e-07 0)
(1.13311 1.63218e-07 0)
(1.13311 6.11859e-07 0)
(1.13311 -1.62524e-07 0)
(1.13311 -6.11968e-07 0)
(1.14093 1.60488e-07 0)
(1.14093 5.06276e-07 0)
(1.14093 -1.60055e-07 0)
(1.14093 -5.06127e-07 0)
(1.14839 1.59305e-07 0)
(1.14839 3.67473e-07 0)
(1.14839 -1.59095e-07 0)
(1.14839 -3.67166e-07 0)
(1.15546 1.78418e-07 0)
(1.15545 2.59922e-07 0)
(1.15546 -1.78299e-07 0)
(1.15545 -2.59602e-07 0)
(1.16208 1.88657e-07 0)
(1.16207 2.33272e-07 0)
(1.16208 -1.88615e-07 0)
(1.16207 -2.32862e-07 0)
(1.1682 2.20339e-07 0)
(1.16819 1.83071e-07 0)
(1.1682 -2.20284e-07 0)
(1.1682 -1.8284e-07 0)
(1.17375 2.69553e-07 0)
(1.17375 2.03733e-07 0)
(1.17375 -2.69511e-07 0)
(1.17375 -2.03547e-07 0)
(1.17866 2.33438e-07 0)
(1.17866 2.31125e-07 0)
(1.17866 -2.33437e-07 0)
(1.17866 -2.3096e-07 0)
(1.18282 2.21414e-07 0)
(1.18282 1.61642e-07 0)
(1.18282 -2.2141e-07 0)
(1.18282 -1.61697e-07 0)
(1.18612 1.28292e-07 0)
(1.18612 1.2011e-07 0)
(1.18612 -1.28284e-07 0)
(1.18612 -1.20175e-07 0)
(1.18844 8.35397e-08 0)
(1.18844 5.93843e-08 0)
(1.18844 -8.33113e-08 0)
(1.18844 -5.92321e-08 0)
(1.18966 3.40816e-08 0)
(1.18966 1.10133e-08 0)
(1.18966 -3.42117e-08 0)
(1.18965 -1.11652e-08 0)
)
;

boundaryField
{
    inlet
    {
        type            cyclic;
    }
    outlet
    {
        type            cyclic;
    }
    fixedWalls-bottom
    {
        type            noSlip;
    }
    fixedWalls-top
    {
        type            symmetry;
    }
    frontAndBack
    {
        type            empty;
    }
}


// ************************************************************************* //
