/*--------------------------------*- C++ -*----------------------------------*\
  =========                 |
  \\      /  F ield         | OpenFOAM: The Open Source CFD Toolbox
   \\    /   O peration     | Website:  https://openfoam.org
    \\  /    A nd           | Version:  10
     \\/     M anipulation  |
\*---------------------------------------------------------------------------*/
FoamFile
{
    format      ascii;
    class       volScalarField;
    location    "2500";
    object      p;
}
// * * * * * * * * * * * * * * * * * * * * * * * * * * * * * * * * * * * * * //

dimensions      [0 2 -2 0 0 0 0];

internalField   nonuniform List<scalar> 
400
(
1.20937e-11
1.75168e-07
-8.82368e-07
-1.04928e-06
-1.23022e-09
1.75854e-07
-8.81103e-07
-1.04997e-06
-2.80825e-09
1.75865e-07
-8.79517e-07
-1.04998e-06
-4.57276e-09
1.74351e-07
-8.77745e-07
-1.04848e-06
-6.46217e-09
1.71411e-07
-8.75849e-07
-1.04554e-06
-8.12327e-09
1.67346e-07
-8.74184e-07
-1.04149e-06
-9.4368e-09
1.62416e-07
-8.72867e-07
-1.03657e-06
-1.05121e-08
1.56802e-07
-8.71788e-07
-1.03097e-06
-1.15302e-08
1.50657e-07
-8.70768e-07
-1.02485e-06
-1.27181e-08
1.44063e-07
-8.69579e-07
-1.01827e-06
-1.42523e-08
1.37074e-07
-8.68044e-07
-1.01131e-06
-1.62434e-08
1.29734e-07
-8.66053e-07
-1.004e-06
-1.87423e-08
1.22092e-07
-8.63556e-07
-9.96387e-07
-2.17883e-08
1.14175e-07
-8.60513e-07
-9.88506e-07
-2.53923e-08
1.06008e-07
-8.56913e-07
-9.80377e-07
-2.95688e-08
9.75885e-08
-8.52743e-07
-9.72001e-07
-3.431e-08
8.8916e-08
-8.48007e-07
-9.63375e-07
-3.96121e-08
7.99785e-08
-8.42713e-07
-9.54488e-07
-4.54513e-08
7.07732e-08
-8.36882e-07
-9.45338e-07
-5.1807e-08
6.12961e-08
-8.30536e-07
-9.3592e-07
-5.86412e-08
5.15502e-08
-8.23712e-07
-9.26236e-07
-6.59181e-08
4.15386e-08
-8.16446e-07
-9.16292e-07
-7.35929e-08
3.1266e-08
-8.08782e-07
-9.0609e-07
-8.16265e-08
2.07386e-08
-8.0076e-07
-8.95637e-07
-8.99783e-08
9.96027e-09
-7.92419e-07
-8.84937e-07
-9.86091e-08
-1.06332e-09
-7.83801e-07
-8.73997e-07
-1.07477e-07
-1.23329e-08
-7.74944e-07
-8.62813e-07
-1.16533e-07
-2.385e-08
-7.65901e-07
-8.51387e-07
-1.25725e-07
-3.56247e-08
-7.56719e-07
-8.39706e-07
-1.34994e-07
-4.76744e-08
-7.47461e-07
-8.27755e-07
-1.44289e-07
-6.00243e-08
-7.38176e-07
-8.15506e-07
-1.53585e-07
-7.26937e-08
-7.28889e-07
-8.02942e-07
-1.62934e-07
-8.56029e-08
-7.19547e-07
-7.90141e-07
-1.72449e-07
-9.8557e-08
-7.10041e-07
-7.77299e-07
-1.822e-07
-1.11456e-07
-7.00296e-07
-7.64515e-07
-1.92168e-07
-1.24372e-07
-6.90333e-07
-7.51718e-07
-2.02303e-07
-1.3737e-07
-6.80202e-07
-7.38842e-07
-2.12553e-07
-1.50505e-07
-6.69954e-07
-7.25832e-07
-2.2288e-07
-1.63816e-07
-6.59627e-07
-7.12648e-07
-2.33256e-07
-1.77357e-07
-6.49251e-07
-6.99239e-07
-2.43675e-07
-1.91168e-07
-6.38828e-07
-6.85561e-07
-2.54187e-07
-2.05209e-07
-6.28313e-07
-6.71657e-07
-2.64891e-07
-2.19296e-07
-6.17602e-07
-6.57708e-07
-2.75854e-07
-2.333e-07
-6.06631e-07
-6.43846e-07
-2.87064e-07
-2.47242e-07
-5.9541e-07
-6.30047e-07
-2.98468e-07
-2.61157e-07
-5.83995e-07
-6.16278e-07
-3.10018e-07
-2.75069e-07
-5.7243e-07
-6.02514e-07
-3.21677e-07
-2.88976e-07
-5.60756e-07
-5.88758e-07
-3.33416e-07
-3.02883e-07
-5.48997e-07
-5.75002e-07
-3.45212e-07
-3.16783e-07
-5.3718e-07
-5.61257e-07
-3.57046e-07
-3.30675e-07
-5.25323e-07
-5.4752e-07
-3.68898e-07
-3.44549e-07
-5.13447e-07
-5.33803e-07
-3.80752e-07
-3.58405e-07
-5.01564e-07
-5.20105e-07
-3.92595e-07
-3.72231e-07
-4.89692e-07
-5.06439e-07
-4.0441e-07
-3.86025e-07
-4.77843e-07
-4.92805e-07
-4.16188e-07
-3.99774e-07
-4.66031e-07
-4.79218e-07
-4.27914e-07
-4.13476e-07
-4.54267e-07
-4.65678e-07
-4.39578e-07
-4.27117e-07
-4.42565e-07
-4.522e-07
-4.51167e-07
-4.40694e-07
-4.30933e-07
-4.38787e-07
-4.62673e-07
-4.54192e-07
-4.19384e-07
-4.25452e-07
-4.74083e-07
-4.67609e-07
-4.07928e-07
-4.12199e-07
-4.8539e-07
-4.80928e-07
-3.96574e-07
-3.99043e-07
-4.96581e-07
-4.94147e-07
-3.85333e-07
-3.85988e-07
-5.07649e-07
-5.07249e-07
-3.74214e-07
-3.73049e-07
-5.18582e-07
-5.20231e-07
-3.63226e-07
-3.60229e-07
-5.29375e-07
-5.33077e-07
-3.52379e-07
-3.47545e-07
-5.40015e-07
-5.45782e-07
-3.41682e-07
-3.35001e-07
-5.50495e-07
-5.5833e-07
-3.31144e-07
-3.22612e-07
-5.60805e-07
-5.70715e-07
-3.20773e-07
-3.10384e-07
-5.70938e-07
-5.82923e-07
-3.10581e-07
-2.98332e-07
-5.80883e-07
-5.94946e-07
-3.00572e-07
-2.86463e-07
-5.90633e-07
-6.06769e-07
-2.90762e-07
-2.74792e-07
-6.00178e-07
-6.18385e-07
-2.81152e-07
-2.63327e-07
-6.09509e-07
-6.29777e-07
-2.71759e-07
-2.52081e-07
-6.18617e-07
-6.40938e-07
-2.62585e-07
-2.41065e-07
-6.27494e-07
-6.51851e-07
-2.53645e-07
-2.30293e-07
-6.36132e-07
-6.62506e-07
-2.44941e-07
-2.19777e-07
-6.4452e-07
-6.72887e-07
-2.36489e-07
-2.09531e-07
-6.52653e-07
-6.82981e-07
-2.28291e-07
-1.99568e-07
-6.60519e-07
-6.9277e-07
-2.20362e-07
-1.89906e-07
-6.68113e-07
-7.02239e-07
-2.12704e-07
-1.8056e-07
-6.75423e-07
-7.11368e-07
-2.05334e-07
-1.71549e-07
-6.82441e-07
-7.20139e-07
-1.98254e-07
-1.62892e-07
-6.89153e-07
-7.28529e-07
-1.91484e-07
-1.5461e-07
-6.95549e-07
-7.36518e-07
-1.8503e-07
-1.46724e-07
-7.01612e-07
-7.44081e-07
-1.78913e-07
-1.39259e-07
-7.07327e-07
-7.51197e-07
-1.73144e-07
-1.32235e-07
-7.12665e-07
-7.57839e-07
-1.67756e-07
-1.25678e-07
-7.176e-07
-7.63985e-07
-1.62774e-07
-1.19611e-07
-7.22104e-07
-7.6961e-07
-1.58227e-07
-1.14059e-07
-7.26164e-07
-7.74694e-07
-1.54126e-07
-1.09042e-07
-7.29798e-07
-7.79211e-07
-1.50455e-07
-1.04584e-07
-7.33035e-07
-7.83141e-07
-1.47184e-07
-1.00705e-07
-7.35894e-07
-7.86464e-07
-1.44297e-07
-9.74275e-08
-7.38359e-07
-7.89158e-07
-1.41808e-07
-9.47705e-08
-7.40395e-07
-7.91205e-07
-1.39754e-07
-9.27531e-08
-7.41957e-07
-7.92594e-07
-1.38181e-07
-9.13852e-08
-7.42998e-07
-7.93347e-07
-1.37138e-07
-9.06449e-08
-7.43525e-07
-7.93596e-07
-1.36616e-07
-9.04037e-08
-7.43756e-07
-7.93686e-07
-1.36398e-07
-9.03157e-08
)
;

boundaryField
{
    inlet
    {
        type            cyclic;
    }
    outlet
    {
        type            cyclic;
    }
    fixedWalls-bottom
    {
        type            zeroGradient;
    }
    fixedWalls-top
    {
        type            symmetry;
    }
    frontAndBack
    {
        type            empty;
    }
}


// ************************************************************************* //
