/*--------------------------------*- C++ -*----------------------------------*\
  =========                 |
  \\      /  F ield         | OpenFOAM: The Open Source CFD Toolbox
   \\    /   O peration     | Website:  https://openfoam.org
    \\  /    A nd           | Version:  10
     \\/     M anipulation  |
\*---------------------------------------------------------------------------*/
FoamFile
{
    format      ascii;
    class       volScalarField;
    location    "3009";
    object      nut;
}
// * * * * * * * * * * * * * * * * * * * * * * * * * * * * * * * * * * * * * //

dimensions      [0 2 -1 0 0 0 0];

internalField   nonuniform List<scalar> 
400
(
4.64725e-14
4.64678e-14
4.6468e-14
4.64725e-14
8.15234e-12
8.15152e-12
8.15156e-12
8.1523e-12
1.71606e-10
1.71589e-10
1.7159e-10
1.71607e-10
1.32818e-09
1.32805e-09
1.32805e-09
1.32819e-09
6.07598e-09
6.07536e-09
6.07538e-09
6.07599e-09
2.02812e-08
2.02792e-08
2.02792e-08
2.02812e-08
5.4999e-08
5.49934e-08
5.49937e-08
5.4999e-08
1.28811e-07
1.28798e-07
1.28798e-07
1.28811e-07
2.70566e-07
2.70538e-07
2.70539e-07
2.70565e-07
5.22464e-07
5.2241e-07
5.22413e-07
5.22464e-07
9.43365e-07
9.43267e-07
9.43272e-07
9.43365e-07
1.61209e-06
1.61192e-06
1.61193e-06
1.61209e-06
2.6304e-06
2.63012e-06
2.63014e-06
2.63041e-06
4.12523e-06
4.12479e-06
4.12483e-06
4.12527e-06
6.24956e-06
6.24891e-06
6.24898e-06
6.24967e-06
9.18147e-06
9.18052e-06
9.18065e-06
9.1817e-06
1.31206e-05
1.31192e-05
1.31195e-05
1.3121e-05
1.82816e-05
1.82798e-05
1.82802e-05
1.82825e-05
2.4885e-05
2.48825e-05
2.48832e-05
2.48865e-05
3.31442e-05
3.31411e-05
3.31422e-05
3.31468e-05
4.3252e-05
4.32481e-05
4.32498e-05
4.32562e-05
5.53647e-05
5.53598e-05
5.53624e-05
5.53712e-05
6.95881e-05
6.95824e-05
6.95861e-05
6.95979e-05
8.59666e-05
8.596e-05
8.59651e-05
8.59806e-05
0.000104475
0.000104468
0.000104475
0.000104495
0.000125019
0.000125011
0.00012502
0.000125046
0.000147437
0.000147428
0.000147438
0.000147471
0.000171508
0.000171498
0.00017151
0.00017155
0.000196968
0.000196958
0.000196972
0.00019702
0.000223523
0.000223513
0.000223528
0.000223585
0.000247204
0.000247187
0.000247186
0.000247213
0.000270542
0.000270524
0.000270522
0.000270549
0.000294361
0.000294343
0.000294339
0.000294367
0.000318599
0.000318582
0.000318577
0.000318605
0.000343167
0.000343149
0.000343143
0.000343173
0.000367973
0.000367957
0.000367949
0.000367979
0.000392932
0.000392916
0.000392908
0.000392938
0.00041796
0.000417945
0.000417935
0.000417966
0.000442979
0.000442965
0.000442954
0.000442985
0.00046792
0.000467907
0.000467895
0.000467925
0.000492723
0.000492711
0.000492698
0.000492728
0.000517347
0.000517336
0.000517322
0.000517351
0.000541772
0.000541763
0.000541748
0.000541775
0.000566015
0.000566008
0.000565992
0.000566017
0.000590136
0.000590129
0.000590113
0.000590136
0.000614247
0.000614241
0.000614225
0.000614244
0.000638523
0.000638518
0.0006385
0.000638516
0.000663195
0.00066319
0.000663172
0.000663183
0.000688527
0.000688521
0.000688503
0.000688508
0.000714515
0.000714507
0.000714489
0.000714497
0.000737326
0.000737325
0.000737327
0.000737425
0.000754634
0.000754633
0.000754634
0.000754723
0.000771388
0.000771388
0.000771389
0.000771467
0.000787678
0.000787678
0.000787678
0.000787745
0.000803594
0.000803594
0.000803594
0.000803648
0.000819228
0.000819228
0.000819227
0.000819268
0.000834669
0.000834668
0.000834668
0.000834695
0.00085
0.000849996
0.000849997
0.000850008
0.000865287
0.00086528
0.000865282
0.000865278
0.000880583
0.000880573
0.000880575
0.000880556
0.00089592
0.000895908
0.000895911
0.000895878
0.000911314
0.000911304
0.000911303
0.00091126
0.000926764
0.000926761
0.000926753
0.000926703
0.000942265
0.000942269
0.000942247
0.000942195
0.000957797
0.000957799
0.000957779
0.000957715
0.000973333
0.000973332
0.000973319
0.00097324
0.000988854
0.000988861
0.000988832
0.000988754
0.00100435
0.00100435
0.00100432
0.00100424
0.00101981
0.00101979
0.00101977
0.00101969
0.00103524
0.00103522
0.00103521
0.00103512
0.00105068
0.00105066
0.00105065
0.00105056
0.00106619
0.00106618
0.00106616
0.00106607
0.00108185
0.00108185
0.00108181
0.00108175
0.0010978
0.00109781
0.0010977
0.00109772
0.00111421
0.00111423
0.00111405
0.00111415
0.00113131
0.0011313
0.00113106
0.00113124
0.00114944
0.0011494
0.00114913
0.00114942
0.00116858
0.00116866
0.00116841
0.00116873
0.00118709
0.00118722
0.00118697
0.0011873
0.00120436
0.00120445
0.00120425
0.00120455
0.0012202
0.00122024
0.00122012
0.00122037
0.00123457
0.0012346
0.00123455
0.00123477
0.00124757
0.00124757
0.00124761
0.00124785
0.00125932
0.00125922
0.00125942
0.00125971
0.00126993
0.0012698
0.00127003
0.00127047
0.00127952
0.0012794
0.00127959
0.00128025
0.00128818
0.00128814
0.00128824
0.00128917
0.00129595
0.00129627
0.00129627
0.00129728
0.00130352
0.00130329
0.00130397
0.00130466
0.00131028
0.00131014
0.00131089
0.00131156
0.00131653
0.0013169
0.00131706
0.00131805
0.00132235
0.0013229
0.00132291
0.00132421
0.00132785
0.0013285
0.00132848
0.00132999
0.00133301
0.00133372
0.00133371
0.0013354
0.00133772
0.00133849
0.0013385
0.00134035
0.0013418
0.00134264
0.00134266
0.00134465
0.00134476
0.00134567
0.00134571
0.00134782
0.00134613
0.00134714
0.0013472
0.00134942
0.00134639
0.00134762
0.00134773
0.00135002
0.00134717
0.00134886
0.00134912
0.00135143
)
;

boundaryField
{
    inlet
    {
        type            cyclic;
    }
    outlet
    {
        type            cyclic;
    }
    fixedWalls-bottom
    {
        type            nutkWallFunction;
        Cmu             0.09;
        kappa           0.41;
        E               9.8;
        value           uniform 0;
    }
    fixedWalls-top
    {
        type            symmetry;
    }
    frontAndBack
    {
        type            empty;
    }
}


// ************************************************************************* //
