/*--------------------------------*- C++ -*----------------------------------*\
  =========                 |
  \\      /  F ield         | OpenFOAM: The Open Source CFD Toolbox
   \\    /   O peration     | Website:  https://openfoam.org
    \\  /    A nd           | Version:  10
     \\/     M anipulation  |
\*---------------------------------------------------------------------------*/
FoamFile
{
    format      ascii;
    class       volScalarField;
    location    "3009";
    object      omega;
}
// * * * * * * * * * * * * * * * * * * * * * * * * * * * * * * * * * * * * * //

dimensions      [0 0 -1 0 0 0 0];

internalField   nonuniform List<scalar> 
400
(
27916.1
27916.1
27916.1
27916.1
4774.55
4774.55
4774.55
4774.57
1606.24
1606.24
1606.24
1606.24
754.527
754.527
754.527
754.527
426.781
426.782
426.782
426.782
270.77
270.77
270.77
270.771
185.537
185.537
185.537
185.538
134.313
134.313
134.313
134.314
101.313
101.313
101.313
101.314
78.9072
78.9074
78.9074
78.908
63.0591
63.0593
63.0593
63.0598
51.4777
51.4779
51.4779
51.4783
42.7873
42.7875
42.7875
42.7878
36.1225
36.1227
36.1226
36.1229
30.9175
30.9177
30.9176
30.9178
26.79
26.7902
26.79
26.7901
23.4743
23.4744
23.4742
23.4742
20.781
20.781
20.7808
20.7807
18.5723
18.5723
18.572
18.5718
16.746
16.746
16.7456
16.7454
15.2249
15.2248
15.2244
15.2241
13.9498
13.9498
13.9493
13.9489
12.8749
12.8748
12.8743
12.8738
11.9639
11.9638
11.9632
11.9626
11.188
11.1878
11.1873
11.1866
10.5241
10.5239
10.5234
10.5225
9.95349
9.95329
9.95271
9.95176
9.46076
9.46054
9.45997
9.45891
9.0333
9.03308
9.03252
9.03136
8.66066
8.66044
8.65988
8.65865
8.33413
8.33392
8.33336
8.33207
8.04642
8.04622
8.04567
8.04433
7.79141
7.79123
7.7907
7.78931
7.56397
7.56379
7.56328
7.56188
7.35974
7.35957
7.35908
7.35767
7.17504
7.17489
7.17442
7.17301
7.00677
7.00663
7.00618
7.00479
6.85229
6.85215
6.85173
6.85037
6.70934
6.70922
6.70882
6.70749
6.57604
6.57592
6.57555
6.57427
6.45076
6.45065
6.45031
6.44908
6.33214
6.33203
6.33173
6.33055
6.219
6.2189
6.21863
6.2175
6.11035
6.11026
6.11002
6.10895
6.00535
6.00526
6.00505
6.00405
5.90326
5.90319
5.90299
5.90206
5.80347
5.8034
5.80323
5.80237
5.70544
5.70536
5.70522
5.70442
5.60872
5.6086
5.60848
5.60776
5.51281
5.51272
5.51261
5.51196
5.41736
5.41733
5.41722
5.41665
5.32209
5.32206
5.32197
5.32147
5.22663
5.22661
5.22653
5.22611
5.13068
5.13066
5.13059
5.13025
5.03394
5.03392
5.03388
5.03361
4.93616
4.93615
4.93611
4.93591
4.83712
4.83712
4.83709
4.83696
4.73667
4.73669
4.73667
4.7366
4.63475
4.63479
4.63477
4.63476
4.53139
4.53144
4.53142
4.53148
4.42669
4.42674
4.42672
4.42683
4.3208
4.32084
4.32084
4.32098
4.21394
4.21395
4.21398
4.21414
4.10629
4.10627
4.10636
4.10651
3.99808
3.99807
3.99815
3.99834
3.88951
3.88952
3.88956
3.8898
3.78074
3.78072
3.78082
3.78104
3.67186
3.67187
3.67195
3.67218
3.56295
3.56303
3.56306
3.56327
3.45403
3.45411
3.45413
3.45434
3.34503
3.3451
3.34512
3.34533
3.23584
3.23587
3.23591
3.23612
3.12629
3.1263
3.12641
3.12653
3.01616
3.01614
3.01643
3.01631
2.90514
2.90512
2.90555
2.90527
2.79296
2.79296
2.79353
2.79305
2.67931
2.67941
2.67997
2.67931
2.565
2.56481
2.5653
2.56464
2.45367
2.45339
2.45387
2.45323
2.34616
2.34598
2.34633
2.34578
2.24242
2.24234
2.24253
2.24212
2.14221
2.14216
2.14221
2.14186
2.04515
2.04514
2.04504
2.04469
1.95096
1.9511
1.95075
1.95035
1.85949
1.85965
1.85928
1.8587
1.7707
1.77085
1.77055
1.7697
1.68471
1.68474
1.68457
1.68342
1.60175
1.60133
1.60129
1.60012
1.52138
1.52163
1.5208
1.52007
1.44482
1.44494
1.4441
1.44342
1.37219
1.37179
1.3716
1.37063
1.304
1.30344
1.30341
1.30218
1.24071
1.2401
1.24008
1.23873
1.18298
1.18234
1.18231
1.18088
1.13151
1.13084
1.1308
1.1293
1.08701
1.08632
1.08627
1.08472
1.05023
1.04951
1.04945
1.04786
1.02189
1.02112
1.02105
1.01943
1.00272
1.0018
1.0017
1.00006
0.992428
0.991178
0.990963
0.989323
)
;

boundaryField
{
    inlet
    {
        type            cyclic;
    }
    outlet
    {
        type            cyclic;
    }
    fixedWalls-bottom
    {
        beta1           0.075;
        blended         0;
        type            omegaWallFunction;
        value           uniform 27916.1;
    }
    fixedWalls-top
    {
        type            symmetry;
    }
    frontAndBack
    {
        type            empty;
    }
}


// ************************************************************************* //
