/*--------------------------------*- C++ -*----------------------------------*\
  =========                 |
  \\      /  F ield         | OpenFOAM: The Open Source CFD Toolbox
   \\    /   O peration     | Website:  https://openfoam.org
    \\  /    A nd           | Version:  10
     \\/     M anipulation  |
\*---------------------------------------------------------------------------*/
FoamFile
{
    format      ascii;
    class       volScalarField;
    location    "3009";
    object      p;
}
// * * * * * * * * * * * * * * * * * * * * * * * * * * * * * * * * * * * * * //

dimensions      [0 2 -2 0 0 0 0];

internalField   nonuniform List<scalar> 
400
(
-1.98922e-13
-7.47389e-08
-1.64153e-07
-8.94238e-08
-3.03841e-11
-7.47103e-08
-1.64124e-07
-8.94524e-08
-5.87293e-11
-7.46763e-08
-1.64096e-07
-8.94864e-08
-7.85381e-11
-7.46424e-08
-1.64076e-07
-8.95203e-08
-9.04542e-11
-7.46082e-08
-1.64064e-07
-8.95545e-08
-9.51378e-11
-7.45735e-08
-1.64059e-07
-8.95892e-08
-9.26858e-11
-7.45382e-08
-1.64062e-07
-8.96245e-08
-8.30442e-11
-7.45026e-08
-1.64071e-07
-8.96601e-08
-6.63895e-11
-7.44672e-08
-1.64088e-07
-8.96955e-08
-4.30511e-11
-7.44324e-08
-1.64111e-07
-8.97303e-08
-1.37053e-11
-7.43988e-08
-1.64141e-07
-8.97639e-08
2.06475e-11
-7.43674e-08
-1.64175e-07
-8.97953e-08
5.83955e-11
-7.43391e-08
-1.64213e-07
-8.98236e-08
9.72255e-11
-7.43153e-08
-1.64251e-07
-8.98474e-08
1.33698e-10
-7.42976e-08
-1.64288e-07
-8.98651e-08
1.62961e-10
-7.42876e-08
-1.64317e-07
-8.9875e-08
1.78089e-10
-7.4287e-08
-1.64332e-07
-8.98757e-08
1.69508e-10
-7.42968e-08
-1.64324e-07
-8.98658e-08
1.24044e-10
-7.43172e-08
-1.64278e-07
-8.98455e-08
2.41358e-11
-7.43465e-08
-1.64178e-07
-8.98161e-08
-1.53017e-10
-7.4381e-08
-1.64001e-07
-8.97816e-08
-4.35823e-10
-7.44139e-08
-1.63718e-07
-8.97488e-08
-8.58519e-10
-7.44352e-08
-1.63296e-07
-8.97274e-08
-1.46034e-09
-7.44329e-08
-1.62694e-07
-8.97298e-08
-2.28335e-09
-7.43938e-08
-1.61871e-07
-8.97689e-08
-3.36906e-09
-7.43068e-08
-1.60785e-07
-8.98559e-08
-4.76107e-09
-7.4163e-08
-1.59393e-07
-8.99997e-08
-6.52466e-09
-7.39468e-08
-1.5763e-07
-9.02158e-08
-8.74242e-09
-7.36377e-08
-1.55412e-07
-9.05249e-08
-1.12783e-08
-7.33076e-08
-1.52876e-07
-9.0855e-08
-1.31568e-08
-7.33727e-08
-1.50998e-07
-9.07899e-08
-1.41561e-08
-7.38925e-08
-1.49998e-07
-9.02701e-08
-1.50455e-08
-7.45002e-08
-1.49109e-07
-8.96623e-08
-1.59928e-08
-7.51114e-08
-1.48162e-07
-8.90512e-08
-1.69599e-08
-7.57356e-08
-1.47195e-07
-8.8427e-08
-1.7915e-08
-7.63797e-08
-1.46239e-07
-8.77829e-08
-1.88484e-08
-7.70399e-08
-1.45306e-07
-8.71226e-08
-1.97548e-08
-7.77102e-08
-1.444e-07
-8.64523e-08
-2.06275e-08
-7.83847e-08
-1.43527e-07
-8.57778e-08
-2.14592e-08
-7.90578e-08
-1.42695e-07
-8.51047e-08
-2.22419e-08
-7.97239e-08
-1.41913e-07
-8.44386e-08
-2.29671e-08
-8.03775e-08
-1.41187e-07
-8.3785e-08
-2.36247e-08
-8.10141e-08
-1.4053e-07
-8.31484e-08
-2.42022e-08
-8.16299e-08
-1.39952e-07
-8.25325e-08
-2.46855e-08
-8.22228e-08
-1.39469e-07
-8.19397e-08
-2.50584e-08
-8.27926e-08
-1.39096e-07
-8.13698e-08
-2.52879e-08
-8.33481e-08
-1.38867e-07
-8.08143e-08
-2.52884e-08
-8.39205e-08
-1.38866e-07
-8.02419e-08
-2.49742e-08
-8.45562e-08
-1.3918e-07
-7.96062e-08
-2.47597e-08
-8.51877e-08
-1.39395e-07
-7.89747e-08
-2.63747e-08
-8.54271e-08
-1.3778e-07
-7.87353e-08
-2.9638e-08
-8.52535e-08
-1.34517e-07
-7.89089e-08
-3.27025e-08
-8.50231e-08
-1.31452e-07
-7.91392e-08
-3.52493e-08
-8.4811e-08
-1.28905e-07
-7.93513e-08
-3.73535e-08
-8.46052e-08
-1.26801e-07
-7.95571e-08
-3.90512e-08
-8.43905e-08
-1.25104e-07
-7.97718e-08
-4.03306e-08
-8.41698e-08
-1.23824e-07
-7.99925e-08
-4.11765e-08
-8.39814e-08
-1.22978e-07
-8.01809e-08
-4.15865e-08
-8.38585e-08
-1.22568e-07
-8.03038e-08
-4.1558e-08
-8.37904e-08
-1.22597e-07
-8.0372e-08
-4.10999e-08
-8.37699e-08
-1.23055e-07
-8.03924e-08
-4.02276e-08
-8.37891e-08
-1.23927e-07
-8.03733e-08
-3.89324e-08
-8.38205e-08
-1.25222e-07
-8.03418e-08
-3.72001e-08
-8.39416e-08
-1.26955e-07
-8.02208e-08
-3.50873e-08
-8.41534e-08
-1.29068e-07
-8.00089e-08
-3.2683e-08
-8.43264e-08
-1.31472e-07
-7.98359e-08
-2.9953e-08
-8.45404e-08
-1.34202e-07
-7.96219e-08
-2.70076e-08
-8.48971e-08
-1.37147e-07
-7.92651e-08
-2.4237e-08
-8.54079e-08
-1.39918e-07
-7.87544e-08
-2.1675e-08
-8.60332e-08
-1.4248e-07
-7.8129e-08
-1.90282e-08
-8.66191e-08
-1.45127e-07
-7.75431e-08
-1.61474e-08
-8.70525e-08
-1.48008e-07
-7.71097e-08
-1.31833e-08
-8.76278e-08
-1.50972e-07
-7.65344e-08
-1.04446e-08
-8.91014e-08
-1.53711e-07
-7.50607e-08
-7.9075e-09
-9.2099e-08
-1.56248e-07
-7.20632e-08
-5.67502e-09
-9.69775e-08
-1.5848e-07
-6.71847e-08
-4.58094e-09
-1.03287e-07
-1.59574e-07
-6.0875e-08
-4.85294e-09
-1.08516e-07
-1.59302e-07
-5.56461e-08
-5.64613e-09
-1.11576e-07
-1.58509e-07
-5.25859e-08
-6.54851e-09
-1.13914e-07
-1.57607e-07
-5.02482e-08
-7.66736e-09
-1.15982e-07
-1.56488e-07
-4.81799e-08
-9.26302e-09
-1.17226e-07
-1.54892e-07
-4.6936e-08
-1.21349e-08
-1.17209e-07
-1.5202e-07
-4.69539e-08
-1.76599e-08
-1.16028e-07
-1.46495e-07
-4.81354e-08
-2.62765e-08
-1.14469e-07
-1.37879e-07
-4.96949e-08
-3.74768e-08
-1.13495e-07
-1.26678e-07
-5.06679e-08
-5.0623e-08
-1.12982e-07
-1.13532e-07
-5.1181e-08
-6.43361e-08
-1.10678e-07
-9.98193e-08
-5.34844e-08
-7.96061e-08
-1.05743e-07
-8.45492e-08
-5.84191e-08
-9.62393e-08
-9.93549e-08
-6.79156e-08
-6.48071e-08
-1.10423e-07
-9.29438e-08
-5.37317e-08
-7.12184e-08
-1.22524e-07
-8.73389e-08
-4.16309e-08
-7.68233e-08
-1.35031e-07
-8.19818e-08
-2.91237e-08
-8.21802e-08
-1.4801e-07
-7.65828e-08
-1.61449e-08
-8.7579e-08
-1.60784e-07
-7.12267e-08
-3.37099e-09
-9.29347e-08
-1.72706e-07
-6.61551e-08
8.55212e-09
-9.80059e-08
-1.83212e-07
-6.16054e-08
1.90582e-08
-1.02555e-07
-1.91734e-07
-5.77283e-08
2.75811e-08
-1.06432e-07
-1.97825e-07
-5.45398e-08
3.36726e-08
-1.0962e-07
-2.01546e-07
-5.21289e-08
3.73949e-08
-1.12031e-07
)
;

boundaryField
{
    inlet
    {
        type            cyclic;
    }
    outlet
    {
        type            cyclic;
    }
    fixedWalls-bottom
    {
        type            zeroGradient;
    }
    fixedWalls-top
    {
        type            symmetry;
    }
    frontAndBack
    {
        type            empty;
    }
}


// ************************************************************************* //
