/*--------------------------------*- C++ -*----------------------------------*\
  =========                 |
  \\      /  F ield         | OpenFOAM: The Open Source CFD Toolbox
   \\    /   O peration     | Website:  https://openfoam.org
    \\  /    A nd           | Version:  10
     \\/     M anipulation  |
\*---------------------------------------------------------------------------*/
FoamFile
{
    format      ascii;
    class       surfaceScalarField;
    location    "3009";
    object      phi;
}
// * * * * * * * * * * * * * * * * * * * * * * * * * * * * * * * * * * * * * //

dimensions      [0 3 -1 0 0 0 0];

internalField   nonuniform List<scalar> 
696
(
7.67041e-05
-5.25753e-11
7.6704e-05
3.74507e-11
7.6704e-05
5.37965e-11
-3.74523e-11
0.000233732
-1.91556e-10
0.000233732
1.54164e-10
0.000233732
1.92793e-10
-1.54169e-10
0.000396651
-3.98426e-10
0.000396651
3.55509e-10
0.000396651
3.99646e-10
-3.55517e-10
0.000565615
-6.56975e-10
0.000565615
6.4698e-10
0.000565614
6.58211e-10
-6.46991e-10
0.00074078
-9.49618e-10
0.00074078
1.03459e-09
0.00074078
9.50835e-10
-1.0346e-09
0.000922307
-1.25693e-09
0.000922307
1.5249e-09
0.000922306
1.25816e-09
-1.52492e-09
0.00111036
-1.55774e-09
0.00111036
2.1251e-09
0.00111036
1.55895e-09
-2.12512e-09
0.00130509
-1.8286e-09
0.00130509
2.84291e-09
0.00130509
1.82983e-09
-2.84293e-09
0.00150667
-2.04388e-09
0.00150667
3.68652e-09
0.00150667
2.04509e-09
-3.68654e-09
0.00171527
-2.17521e-09
0.00171527
4.66425e-09
0.00171527
2.17642e-09
-4.66428e-09
0.00193103
-2.1916e-09
0.00193103
5.78424e-09
0.00193103
2.19279e-09
-5.78427e-09
0.00215411
-2.05905e-09
0.00215411
7.0537e-09
0.00215411
2.06025e-09
-7.05374e-09
0.00238465
-1.74093e-09
0.00238465
8.4782e-09
0.00238465
1.7421e-09
-8.47823e-09
0.00262279
-1.19798e-09
0.00262279
1.00604e-08
0.00262279
1.19916e-09
-1.00605e-08
0.00286864
-3.89483e-10
0.00286864
1.17991e-08
0.00286864
3.90638e-10
-1.17992e-08
0.00312229
7.25647e-10
0.00312229
1.36875e-08
0.00312229
-7.24488e-10
-1.36876e-08
0.00338381
2.18608e-09
0.0033838
1.57123e-08
0.00338381
-2.18494e-09
-1.57123e-08
0.00365323
4.02466e-09
0.00365323
1.78522e-08
0.00365323
-4.02352e-09
-1.78523e-08
0.00393056
6.26281e-09
0.00393056
2.00784e-08
0.00393056
-6.2617e-09
-2.00785e-08
0.00421578
8.90367e-09
0.00421578
2.23545e-08
0.00421578
-8.90256e-09
-2.23545e-08
0.00450881
1.1923e-08
0.0045088
2.4639e-08
0.00450881
-1.19219e-08
-2.4639e-08
0.00480956
1.52595e-08
0.00480955
2.68887e-08
0.00480956
-1.52584e-08
-2.68888e-08
0.0051179
1.88039e-08
0.0051179
2.90634e-08
0.0051179
-1.88029e-08
-2.90635e-08
0.0054337
2.23894e-08
0.0054337
3.1131e-08
0.00543371
-2.23884e-08
-3.1131e-08
0.00575682
2.57832e-08
0.00575681
3.30727e-08
0.00575682
-2.57822e-08
-3.30728e-08
0.00608709
2.86821e-08
0.00608709
3.48879e-08
0.00608709
-2.8681e-08
-3.4888e-08
0.00642439
3.07123e-08
0.00642439
3.65978e-08
0.00642439
-3.07113e-08
-3.65978e-08
0.0067686
3.14348e-08
0.0067686
3.82515e-08
0.0067686
-3.14338e-08
-3.82515e-08
0.00711964
3.0355e-08
0.00711963
3.99395e-08
0.00711963
-3.0354e-08
-3.99396e-08
0.00747745
2.69389e-08
0.00747745
4.18143e-08
0.00747744
-2.69379e-08
-4.18144e-08
0.00784224
2.233e-08
0.00784224
4.33823e-08
0.00784224
-2.2329e-08
-4.33824e-08
0.00821432
1.80271e-08
0.00821432
4.40947e-08
0.00821432
-1.80262e-08
-4.40948e-08
0.00859378
1.41062e-08
0.00859378
4.4062e-08
0.00859378
-1.41053e-08
-4.40621e-08
0.00898066
1.05784e-08
0.00898066
4.34107e-08
0.00898066
-1.05775e-08
-4.34108e-08
0.00937502
7.43707e-09
0.00937502
4.22608e-08
0.00937501
-7.43618e-09
-4.22609e-08
0.00977691
4.66374e-09
0.00977691
4.07246e-08
0.00977691
-4.66286e-09
-4.07247e-08
0.0101864
2.23247e-09
0.0101864
3.89069e-08
0.0101864
-2.23161e-09
-3.89069e-08
0.0106036
1.14133e-10
0.0106036
3.69057e-08
0.0106036
-1.1328e-10
-3.69058e-08
0.0110285
-1.71959e-09
0.0110285
3.48144e-08
0.0110285
1.72042e-09
-3.48145e-08
0.0114614
-3.29146e-09
0.0114614
3.2723e-08
0.0114614
3.29228e-09
-3.2723e-08
0.0119022
-4.61346e-09
0.0119022
3.07196e-08
0.0119022
4.61426e-09
-3.07197e-08
0.012351
-5.67951e-09
0.012351
2.88918e-08
0.012351
5.6803e-09
-2.88919e-08
0.012808
-6.45614e-09
0.012808
2.73253e-08
0.012808
6.45691e-09
-2.73254e-08
0.0132733
-6.86964e-09
0.0132733
2.61008e-08
0.0132733
6.8704e-09
-2.61009e-08
0.013747
-6.79015e-09
0.013747
2.52863e-08
0.013747
6.79088e-09
-2.52864e-08
0.0142291
-6.01263e-09
0.0142291
2.49223e-08
0.0142291
6.01336e-09
-2.49223e-08
0.0147197
-4.23567e-09
0.0147197
2.49948e-08
0.0147197
4.23637e-09
-2.49948e-08
0.0152188
-1.04237e-09
0.0152188
2.53882e-08
0.0152188
1.04307e-09
-2.53882e-08
0.0157265
4.08748e-09
0.0157265
2.58132e-08
0.0157265
-4.08682e-09
-2.58132e-08
0.0162426
1.1526e-08
0.0162426
2.58006e-08
0.0162426
-1.15253e-08
-2.58006e-08
0.0167675
1.83982e-08
0.0167675
2.5426e-08
0.0167675
-1.83976e-08
-2.5426e-08
0.0173015
2.20707e-08
0.0173015
2.48029e-08
0.0173015
-2.207e-08
-2.48029e-08
0.0178452
2.32433e-08
0.0178452
2.35679e-08
0.0178452
-2.32427e-08
-2.35679e-08
0.0183986
2.25466e-08
0.0183986
2.15495e-08
0.0183986
-2.2546e-08
-2.15496e-08
0.0189618
2.05251e-08
0.0189619
1.87243e-08
0.0189618
-2.05246e-08
-1.87243e-08
0.0195349
1.76237e-08
0.0195349
1.51844e-08
0.0195349
-1.76232e-08
-1.51844e-08
0.0201179
1.41955e-08
0.0201179
1.10954e-08
0.0201179
-1.41949e-08
-1.10954e-08
0.0207107
1.05167e-08
0.0207108
6.60603e-09
0.0207107
-1.05162e-08
-6.60602e-09
0.0213136
6.78287e-09
0.0213136
1.82768e-09
0.0213136
-6.78238e-09
-1.82766e-09
0.0219263
3.13515e-09
0.0219263
-3.09049e-09
0.0219263
-3.13468e-09
3.09051e-09
0.0225489
-3.41816e-10
0.0225489
-7.99583e-09
0.0225489
3.42266e-10
7.99585e-09
0.0231814
-3.62102e-09
0.0231814
-1.27492e-08
0.0231814
3.62146e-09
1.27492e-08
0.0238236
-6.66784e-09
0.0238236
-1.71247e-08
0.0238236
6.66825e-09
1.71248e-08
0.0244756
-9.38596e-09
0.0244756
-2.10695e-08
0.0244756
9.38636e-09
2.10695e-08
0.0251372
-1.17304e-08
0.0251372
-2.4581e-08
0.0251372
1.17307e-08
2.45811e-08
0.0258083
-1.38159e-08
0.0258083
-2.73668e-08
0.0258083
1.38162e-08
2.73669e-08
0.0264889
-1.55814e-08
0.0264889
-2.93396e-08
0.0264889
1.55817e-08
2.93397e-08
0.0271788
-1.69832e-08
0.0271788
-3.05939e-08
0.0271788
1.69836e-08
3.0594e-08
0.0278779
-1.86901e-08
0.0278779
-3.12033e-08
0.0278779
1.86904e-08
3.12034e-08
0.028586
-2.13431e-08
0.028586
-3.11091e-08
0.028586
2.13433e-08
3.11092e-08
0.0293029
-2.49504e-08
0.0293029
-2.97916e-08
0.0293029
2.49506e-08
2.97917e-08
0.0300284
-2.90855e-08
0.0300284
-2.62484e-08
0.0300284
2.90857e-08
2.62485e-08
0.0307623
-3.31629e-08
0.0307623
-1.97462e-08
0.0307623
3.31631e-08
1.97464e-08
0.0315044
-3.67252e-08
0.0315044
-1.08795e-08
0.0315044
3.67254e-08
1.08796e-08
0.0322542
-3.86904e-08
0.0322542
-1.25336e-09
0.0322542
3.86906e-08
1.2535e-09
0.0330115
-3.76548e-08
0.0330115
6.70497e-09
0.0330115
3.7655e-08
-6.70482e-09
0.0337758
-3.41972e-08
0.0337757
1.01519e-08
0.0337758
3.41974e-08
-1.01517e-08
0.0345466
-3.0036e-08
0.0345466
1.09523e-08
0.0345466
3.00361e-08
-1.09522e-08
0.0353236
-2.54131e-08
0.0353236
1.29563e-08
0.0353236
2.54131e-08
-1.29561e-08
0.0361065
-1.97513e-08
0.0361065
1.65464e-08
0.0361065
1.97514e-08
-1.65462e-08
0.0368949
-1.23041e-08
0.0368949
2.14779e-08
0.0368949
1.23041e-08
-2.14777e-08
0.0376885
-2.18385e-09
0.0376885
2.82994e-08
0.0376885
2.18384e-09
-2.82992e-08
0.0384868
1.07813e-08
0.0384868
3.76773e-08
0.0384868
-1.07814e-08
-3.7677e-08
0.0392894
2.46143e-08
0.0392894
4.95696e-08
0.0392894
-2.46144e-08
-4.95693e-08
0.0400957
3.73306e-08
0.0400957
6.22569e-08
0.0400957
-3.73307e-08
-6.22566e-08
0.0409053
4.83677e-08
0.0409053
7.22492e-08
0.0409053
-4.83679e-08
-7.22488e-08
0.0417173
5.69153e-08
0.0417173
7.59145e-08
0.0417173
-5.69156e-08
-7.59141e-08
0.0425311
6.46913e-08
0.0425311
7.49106e-08
0.0425311
-6.46916e-08
-7.49101e-08
0.0433459
6.92132e-08
0.0433459
7.24862e-08
0.0433459
-6.92135e-08
-7.24857e-08
0.0441608
6.65735e-08
0.0441608
7.02076e-08
0.0441608
-6.65739e-08
-7.02071e-08
0.0449748
6.2559e-08
0.0449748
6.8372e-08
0.0449748
-6.25595e-08
-6.83714e-08
0.0457869
6.11469e-08
0.0457869
6.58387e-08
0.0457869
-6.11474e-08
-6.58382e-08
0.046596
6.03321e-08
0.046596
6.24248e-08
0.046596
-6.03326e-08
-6.24242e-08
0.0474009
5.85076e-08
0.0474009
5.78731e-08
0.0474009
-5.85081e-08
-5.78726e-08
0.0482003
5.47381e-08
0.0482003
5.18613e-08
0.0482003
-5.47386e-08
-5.18608e-08
0.0489929
4.86118e-08
0.0489929
4.4084e-08
0.0489929
-4.86122e-08
-4.40836e-08
0.0497771
4.00001e-08
0.0497771
3.44052e-08
0.0497771
-4.00005e-08
-3.44049e-08
0.0505515
2.89391e-08
0.0505516
2.30629e-08
0.0505515
-2.89394e-08
-2.30627e-08
0.0513144
1.55364e-08
0.0513144
1.1079e-08
0.0513144
-1.55365e-08
-1.10788e-08
0.0520639
0.0520639
0.0520639
)
;

boundaryField
{
    inlet
    {
        type            cyclic;
        value           nonuniform List<scalar> 
100
(
-0.0520639
-0.0513144
-0.0505515
-0.0497771
-0.0489929
-0.0482003
-0.0474009
-0.046596
-0.0457869
-0.0449748
-0.0441608
-0.0433459
-0.0425311
-0.0417173
-0.0409053
-0.0400958
-0.0392894
-0.0384868
-0.0376885
-0.0368949
-0.0361065
-0.0353236
-0.0345466
-0.0337758
-0.0330115
-0.0322542
-0.0315044
-0.0307623
-0.0300284
-0.0293029
-0.028586
-0.0278779
-0.0271788
-0.0264889
-0.0258083
-0.0251372
-0.0244756
-0.0238236
-0.0231814
-0.0225489
-0.0219263
-0.0213136
-0.0207107
-0.0201179
-0.0195349
-0.0189618
-0.0183986
-0.0178452
-0.0173015
-0.0167675
-0.0162426
-0.0157265
-0.0152188
-0.0147197
-0.0142291
-0.013747
-0.0132733
-0.012808
-0.012351
-0.0119022
-0.0114614
-0.0110285
-0.0106036
-0.0101864
-0.0097769
-0.00937501
-0.00898066
-0.00859378
-0.00821432
-0.00784224
-0.00747744
-0.00711964
-0.0067686
-0.00642439
-0.00608709
-0.00575682
-0.00543371
-0.0051179
-0.00480956
-0.00450881
-0.00421578
-0.00393057
-0.00365323
-0.00338381
-0.00312229
-0.00286864
-0.00262279
-0.00238465
-0.00215411
-0.00193103
-0.00171527
-0.00150667
-0.00130509
-0.00111036
-0.000922307
-0.00074078
-0.000565615
-0.000396651
-0.000233732
-7.6704e-05
)
;
    }
    outlet
    {
        type            cyclic;
        value           nonuniform List<scalar> 
100
(
0.0520639
0.0513144
0.0505515
0.0497771
0.0489929
0.0482003
0.0474009
0.046596
0.0457869
0.0449748
0.0441608
0.0433459
0.0425311
0.0417173
0.0409053
0.0400958
0.0392894
0.0384868
0.0376885
0.0368949
0.0361065
0.0353236
0.0345466
0.0337758
0.0330115
0.0322542
0.0315044
0.0307623
0.0300284
0.0293029
0.028586
0.0278779
0.0271788
0.0264889
0.0258083
0.0251372
0.0244756
0.0238236
0.0231814
0.0225489
0.0219263
0.0213136
0.0207107
0.0201179
0.0195349
0.0189618
0.0183986
0.0178452
0.0173015
0.0167675
0.0162426
0.0157265
0.0152188
0.0147197
0.0142291
0.013747
0.0132733
0.012808
0.012351
0.0119022
0.0114614
0.0110285
0.0106036
0.0101864
0.0097769
0.00937501
0.00898066
0.00859378
0.00821432
0.00784224
0.00747744
0.00711964
0.0067686
0.00642439
0.00608709
0.00575682
0.00543371
0.0051179
0.00480956
0.00450881
0.00421578
0.00393057
0.00365323
0.00338381
0.00312229
0.00286864
0.00262279
0.00238465
0.00215411
0.00193103
0.00171527
0.00150667
0.00130509
0.00111036
0.000922307
0.00074078
0.000565615
0.000396651
0.000233732
7.6704e-05
)
;
    }
    fixedWalls-bottom
    {
        type            calculated;
        value           uniform 0;
    }
    fixedWalls-top
    {
        type            symmetry;
        value           uniform 0;
    }
    frontAndBack
    {
        type            empty;
        value           nonuniform List<scalar> 0();
    }
}


// ************************************************************************* //
