/*--------------------------------*- C++ -*----------------------------------*\
  =========                 |
  \\      /  F ield         | OpenFOAM: The Open Source CFD Toolbox
   \\    /   O peration     | Website:  https://openfoam.org
    \\  /    A nd           | Version:  10
     \\/     M anipulation  |
\*---------------------------------------------------------------------------*/
FoamFile
{
    format      ascii;
    class       volSymmTensorField;
    location    "3009";
    object      R;
}
// * * * * * * * * * * * * * * * * * * * * * * * * * * * * * * * * * * * * * //

dimensions      [0 2 -2 0 0 0 0];

internalField   nonuniform List<symmTensor> 
400
(
(8.64888e-10 -1.67073e-13 -0 8.64888e-10 -0 8.64888e-10)
(8.64801e-10 -1.67056e-13 -0 8.64801e-10 -0 8.64801e-10)
(8.64804e-10 -1.67057e-13 -0 8.64804e-10 -0 8.64804e-10)
(8.64888e-10 -1.67073e-13 -0 8.64888e-10 -0 8.64888e-10)
(2.59492e-08 -2.91721e-11 -0 2.59492e-08 -0 2.59492e-08)
(2.59465e-08 -2.91692e-11 -0 2.59465e-08 -0 2.59465e-08)
(2.59466e-08 -2.91693e-11 -0 2.59466e-08 -0 2.59466e-08)
(2.59492e-08 -2.9172e-11 -0 2.59492e-08 -0 2.59492e-08)
(1.83761e-07 -6.1116e-10 -0 1.83761e-07 -0 1.83761e-07)
(1.83742e-07 -6.11098e-10 -0 1.83742e-07 -0 1.83742e-07)
(1.83743e-07 -6.111e-10 -0 1.83743e-07 -0 1.83743e-07)
(1.83762e-07 -6.11162e-10 -0 1.83762e-07 -0 1.83762e-07)
(6.681e-07 -4.70731e-09 -0 6.681e-07 -0 6.681e-07)
(6.68032e-07 -4.70684e-09 -0 6.68032e-07 -0 6.68032e-07)
(6.68035e-07 -4.70685e-09 -0 6.68035e-07 -0 6.68035e-07)
(6.68102e-07 -4.70733e-09 -0 6.68102e-07 -0 6.68102e-07)
(1.72874e-06 -2.14281e-08 -0 1.72874e-06 -0 1.72874e-06)
(1.72857e-06 -2.14259e-08 -0 1.72857e-06 -0 1.72857e-06)
(1.72858e-06 -2.14259e-08 -0 1.72858e-06 -0 1.72858e-06)
(1.72875e-06 -2.14281e-08 -0 1.72875e-06 -0 1.72875e-06)
(3.66103e-06 -7.11651e-08 -0 3.66103e-06 -0 3.66103e-06)
(3.66066e-06 -7.11578e-08 -0 3.66066e-06 -0 3.66066e-06)
(3.66067e-06 -7.11581e-08 -0 3.66067e-06 -0 3.66067e-06)
(3.66104e-06 -7.11651e-08 -0 3.66104e-06 -0 3.66104e-06)
(6.80291e-06 -1.91993e-07 -0 6.80291e-06 -0 6.80291e-06)
(6.80223e-06 -1.91973e-07 -0 6.80223e-06 -0 6.80223e-06)
(6.80225e-06 -1.91974e-07 -0 6.80225e-06 -0 6.80225e-06)
(6.80295e-06 -1.91993e-07 -0 6.80295e-06 -0 6.80295e-06)
(1.1534e-05 -4.47285e-07 -0 1.1534e-05 -0 1.1534e-05)
(1.15328e-05 -4.47239e-07 -0 1.15328e-05 -0 1.15328e-05)
(1.15329e-05 -4.47241e-07 -0 1.15329e-05 -0 1.15329e-05)
(1.1534e-05 -4.47285e-07 -0 1.1534e-05 -0 1.1534e-05)
(1.82745e-05 -9.34424e-07 -0 1.82745e-05 -0 1.82745e-05)
(1.82727e-05 -9.34328e-07 -0 1.82727e-05 -0 1.82727e-05)
(1.82728e-05 -9.34331e-07 -0 1.82728e-05 -0 1.82728e-05)
(1.82747e-05 -9.34423e-07 -0 1.82747e-05 -0 1.82747e-05)
(2.74841e-05 -1.79429e-06 -0 2.74841e-05 -0 2.74841e-05)
(2.74814e-05 -1.79411e-06 -0 2.74814e-05 -0 2.74814e-05)
(2.74815e-05 -1.79412e-06 -0 2.74815e-05 -0 2.74815e-05)
(2.74844e-05 -1.79429e-06 -0 2.74844e-05 -0 2.74844e-05)
(3.96585e-05 -3.22102e-06 -0 3.96585e-05 -0 3.96585e-05)
(3.96545e-05 -3.22068e-06 -0 3.96545e-05 -0 3.96545e-05)
(3.96547e-05 -3.2207e-06 -0 3.96547e-05 -0 3.96547e-05)
(3.9659e-05 -3.22102e-06 -0 3.9659e-05 -0 3.9659e-05)
(5.53244e-05 -5.47105e-06 -0 5.53244e-05 -0 5.53244e-05)
(5.53189e-05 -5.47047e-06 -0 5.53189e-05 -0 5.53189e-05)
(5.53192e-05 -5.47051e-06 -0 5.53192e-05 -0 5.53192e-05)
(5.53252e-05 -5.47107e-06 -0 5.53252e-05 -0 5.53252e-05)
(7.50318e-05 -8.8703e-06 -0 7.50318e-05 -0 7.50318e-05)
(7.50243e-05 -8.86936e-06 -0 7.50243e-05 -0 7.50243e-05)
(7.50248e-05 -8.86943e-06 -0 7.50248e-05 -0 7.50248e-05)
(7.50331e-05 -8.87036e-06 -0 7.50331e-05 -0 7.50331e-05)
(9.93424e-05 -1.38177e-05 -0 9.93424e-05 -0 9.93424e-05)
(9.93325e-05 -1.38162e-05 -0 9.93325e-05 -0 9.93325e-05)
(9.93332e-05 -1.38163e-05 -0 9.93332e-05 -0 9.93332e-05)
(9.93444e-05 -1.38178e-05 -0 9.93444e-05 -0 9.93444e-05)
(0.000128814 -2.07829e-05 -0 0.000128814 -0 0.000128814)
(0.000128801 -2.07807e-05 -0 0.000128801 -0 0.000128801)
(0.000128802 -2.07809e-05 -0 0.000128802 -0 0.000128802)
(0.000128817 -2.07833e-05 -0 0.000128817 -0 0.000128817)
(0.000163981 -3.02967e-05 -0 0.000163981 -0 0.000163981)
(0.000163965 -3.02935e-05 -0 0.000163965 -0 0.000163965)
(0.000163967 -3.02939e-05 -0 0.000163967 -0 0.000163967)
(0.000163986 -3.02975e-05 -0 0.000163986 -0 0.000163986)
(0.000205331 -4.29312e-05 -0 0.000205331 -0 0.000205331)
(0.00020531 -4.29267e-05 -0 0.00020531 -0 0.00020531)
(0.000205312 -4.29275e-05 -0 0.000205312 -0 0.000205312)
(0.000205337 -4.29327e-05 -0 0.000205337 -0 0.000205337)
(0.000253273 -5.92697e-05 -0 0.000253273 -0 0.000253273)
(0.000253248 -5.92637e-05 -0 0.000253248 -0 0.000253248)
(0.000253251 -5.9265e-05 -0 0.000253251 -0 0.000253251)
(0.000253282 -5.92726e-05 -0 0.000253282 -0 0.000253282)
(0.000308113 -7.98668e-05 -0 0.000308113 -0 0.000308113)
(0.000308083 -7.98589e-05 -0 0.000308083 -0 0.000308083)
(0.000308087 -7.98611e-05 -0 0.000308087 -0 0.000308087)
(0.000308125 -7.98719e-05 -0 0.000308125 -0 0.000308125)
(0.000370022 -0.0001052 -0 0.000370022 -0 0.000370022)
(0.000369986 -0.00010519 -0 0.000369986 -0 0.000369986)
(0.000369991 -0.000105193 -0 0.000369991 -0 0.000369991)
(0.000370037 -0.000105208 -0 0.000370037 -0 0.000370037)
(0.000439005 -0.000135618 -0 0.000439005 -0 0.000439005)
(0.000438963 -0.000135605 -0 0.000438963 -0 0.000438963)
(0.000438969 -0.000135611 -0 0.000438969 -0 0.000438969)
(0.000439025 -0.000135631 -0 0.000439025 -0 0.000439025)
(0.000514886 -0.000171294 -0 0.000514886 -0 0.000514886)
(0.000514838 -0.000171279 -0 0.000514838 -0 0.000514838)
(0.000514846 -0.000171287 -0 0.000514846 -0 0.000514846)
(0.000514911 -0.000171315 -0 0.000514911 -0 0.000514911)
(0.000597294 -0.00021219 -0 0.000597294 -0 0.000597294)
(0.00059724 -0.000212172 -0 0.00059724 -0 0.00059724)
(0.000597248 -0.000212184 -0 0.000597249 -0 0.000597249)
(0.000597325 -0.00021222 -0 0.000597325 -0 0.000597325)
(0.000685664 -0.000258034 -0 0.000685663 -0 0.000685663)
(0.000685603 -0.000258015 -0 0.000685603 -0 0.000685603)
(0.000685613 -0.00025803 -0 0.000685613 -0 0.000685613)
(0.000685701 -0.000258076 -0 0.000685701 -0 0.000685701)
(0.000779248 -0.000308329 -0 0.000779248 -0 0.000779248)
(0.000779181 -0.000308307 -0 0.000779181 -0 0.000779181)
(0.000779192 -0.000308327 -0 0.000779192 -0 0.000779192)
(0.000779292 -0.000308386 -0 0.000779292 -0 0.000779292)
(0.000877147 -0.000362372 -0 0.000877147 -0 0.000877147)
(0.000877074 -0.000362349 -0 0.000877074 -0 0.000877074)
(0.000877085 -0.000362373 -0 0.000877086 -0 0.000877085)
(0.000877197 -0.000362446 -0 0.000877197 -0 0.000877197)
(0.00097834 -0.000419304 -0 0.00097834 -0 0.00097834)
(0.000978262 -0.000419281 -0 0.000978262 -0 0.000978262)
(0.000978272 -0.000419309 -0 0.000978272 -0 0.000978272)
(0.000978394 -0.000419398 -0 0.000978394 -0 0.000978394)
(0.00108173 -0.000478169 -0 0.00108173 -0 0.00108173)
(0.00108165 -0.000478144 -0 0.00108165 -0 0.00108165)
(0.00108165 -0.000478176 -0 0.00108165 -0 0.00108165)
(0.00108179 -0.000478283 -0 0.00108179 -0 0.00108179)
(0.00118618 -0.00053797 -0 0.00118618 -0 0.00118618)
(0.00118609 -0.000537945 -0 0.00118609 -0 0.00118609)
(0.0011861 -0.00053798 -0 0.0011861 -0 0.0011861)
(0.00118624 -0.000538105 -0 0.00118624 -0 0.00118624)
(0.00129057 -0.000597991 -0 0.00129057 -0 0.00129057)
(0.00129048 -0.000597966 -0 0.00129048 -0 0.00129048)
(0.00129048 -0.000598004 -0 0.00129048 -0 0.00129048)
(0.00129063 -0.000598149 -0 0.00129063 -0 0.00129063)
(0.00139388 -0.000648154 -0 0.00139388 -0 0.00139388)
(0.00139379 -0.000648111 -0 0.00139379 -0 0.00139379)
(0.00139378 -0.000648109 -0 0.00139378 -0 0.00139378)
(0.00139393 -0.000648177 -0 0.00139393 -0 0.00139393)
(0.00149551 -0.000695412 -0 0.00149551 -0 0.00149551)
(0.00149542 -0.000695369 -0 0.00149542 -0 0.00149542)
(0.00149541 -0.000695364 -0 0.00149541 -0 0.00149541)
(0.00149556 -0.000695434 -0 0.00149556 -0 0.00149556)
(0.0015949 -0.000741631 -0 0.00159491 -0 0.00159491)
(0.00159481 -0.000741588 -0 0.00159481 -0 0.00159481)
(0.0015948 -0.00074158 -0 0.0015948 -0 0.0015948)
(0.00159495 -0.000741651 -0 0.00159495 -0 0.00159495)
(0.00169153 -0.000786563 -0 0.00169153 -0 0.00169153)
(0.00169144 -0.000786521 -0 0.00169144 -0 0.00169144)
(0.00169142 -0.000786511 -0 0.00169142 -0 0.00169142)
(0.00169157 -0.000786582 -0 0.00169157 -0 0.00169157)
(0.00178492 -0.000829989 -0 0.00178492 -0 0.00178492)
(0.00178483 -0.000829948 -0 0.00178483 -0 0.00178483)
(0.00178481 -0.000829935 -0 0.00178481 -0 0.00178481)
(0.00178496 -0.000830006 -0 0.00178496 -0 0.00178496)
(0.00187465 -0.000871714 -0 0.00187465 -0 0.00187465)
(0.00187457 -0.000871674 -0 0.00187457 -0 0.00187457)
(0.00187453 -0.000871658 -0 0.00187453 -0 0.00187453)
(0.00187469 -0.00087173 -0 0.00187469 -0 0.00187469)
(0.00196037 -0.000911573 -0 0.00196037 -0 0.00196037)
(0.00196029 -0.000911536 -0 0.00196029 -0 0.00196029)
(0.00196025 -0.000911517 -0 0.00196025 -0 0.00196025)
(0.00196041 -0.000911589 -0 0.00196041 -0 0.00196041)
(0.00204179 -0.000949432 -0 0.00204179 -0 0.00204179)
(0.00204171 -0.000949397 -0 0.00204171 -0 0.00204171)
(0.00204167 -0.000949376 -0 0.00204167 -0 0.00204167)
(0.00204182 -0.000949446 -0 0.00204182 -0 0.00204182)
(0.00211866 -0.000985183 -0 0.00211866 -0 0.00211866)
(0.00211859 -0.000985151 -0 0.00211859 -0 0.00211859)
(0.00211854 -0.000985127 -0 0.00211854 -0 0.00211854)
(0.00211869 -0.000985196 -0 0.00211869 -0 0.00211869)
(0.00219082 -0.00101875 -0 0.00219082 -0 0.00219082)
(0.00219076 -0.00101872 -0 0.00219076 -0 0.00219076)
(0.0021907 -0.00101869 -0 0.0021907 -0 0.0021907)
(0.00219085 -0.00101876 -0 0.00219084 -0 0.00219084)
(0.00225813 -0.00105008 -0 0.00225813 -0 0.00225813)
(0.00225808 -0.00105006 -0 0.00225808 -0 0.00225808)
(0.00225802 -0.00105003 -0 0.00225802 -0 0.00225802)
(0.00225816 -0.00105009 -0 0.00225816 -0 0.00225816)
(0.00232053 -0.00107917 -0 0.00232053 -0 0.00232053)
(0.00232048 -0.00107915 -0 0.00232048 -0 0.00232048)
(0.00232041 -0.00107912 -0 0.00232041 -0 0.00232041)
(0.00232055 -0.00107918 -0 0.00232055 -0 0.00232055)
(0.00237796 -0.00110606 -0 0.00237796 -0 0.00237796)
(0.00237792 -0.00110604 -0 0.00237792 -0 0.00237792)
(0.00237785 -0.00110601 -0 0.00237785 -0 0.00237785)
(0.00237798 -0.00110606 -0 0.00237798 -0 0.00237798)
(0.00243044 -0.00113082 -0 0.00243044 -0 0.00243044)
(0.0024304 -0.0011308 -0 0.0024304 -0 0.0024304)
(0.00243034 -0.00113077 -0 0.00243034 -0 0.00243034)
(0.00243046 -0.00113082 -0 0.00243046 -0 0.00243046)
(0.002478 -0.0011536 -0 0.002478 -0 0.002478)
(0.00247796 -0.00115358 -0 0.00247796 -0 0.00247796)
(0.0024779 -0.00115355 -0 0.0024779 -0 0.0024779)
(0.00247801 -0.0011536 -0 0.00247801 -0 0.00247801)
(0.00252067 -0.0011746 -0 0.00252067 -0 0.00252067)
(0.00252064 -0.00117459 -0 0.00252064 -0 0.00252064)
(0.00252057 -0.00117456 -0 0.00252057 -0 0.00252057)
(0.00252068 -0.0011746 -0 0.00252068 -0 0.00252068)
(0.00255853 -0.00119411 -0 0.00255853 -0 0.00255853)
(0.0025585 -0.00119409 -0 0.0025585 -0 0.0025585)
(0.00255844 -0.00119406 -0 0.00255844 -0 0.00255844)
(0.00255854 -0.0011941 -0 0.00255854 -0 0.00255854)
(0.00259164 -0.00121243 -0 0.00259164 -0 0.00259164)
(0.00259161 -0.00121241 -0 0.00259161 -0 0.00259161)
(0.00259155 -0.00121238 -0 0.00259155 -0 0.00259155)
(0.00259164 -0.00121241 -0 0.00259164 -0 0.00259164)
(0.00262005 -0.00122991 -0 0.00262005 -0 0.00262005)
(0.00262003 -0.0012299 -0 0.00262003 -0 0.00262003)
(0.00261997 -0.00122987 -0 0.00261997 -0 0.00261997)
(0.00262005 -0.00122989 -0 0.00262005 -0 0.00262005)
(0.00264381 -0.00124691 -0 0.0026438 -0 0.0026438)
(0.00264378 -0.0012469 -0 0.00264378 -0 0.00264378)
(0.00264373 -0.00124687 -0 0.00264373 -0 0.00264373)
(0.00264381 -0.00124688 -0 0.00264381 -0 0.00264381)
(0.00266291 -0.00125805 -0 0.00266291 -0 0.00266291)
(0.00266289 -0.00125805 -0 0.00266289 -0 0.00266289)
(0.00266284 -0.00125805 -0 0.00266284 -0 0.00266284)
(0.00266292 -0.0012582 -0 0.00266292 -0 0.00266292)
(0.00267749 -0.00126027 -0 0.00267748 -0 0.00267748)
(0.00267747 -0.00126028 -0 0.00267747 -0 0.00267747)
(0.00267742 -0.00126028 -0 0.00267742 -0 0.00267742)
(0.00267749 -0.0012604 -0 0.00267749 -0 0.00267749)
(0.00268784 -0.00126135 -0 0.00268784 -0 0.00268784)
(0.00268783 -0.00126136 -0 0.00268783 -0 0.00268783)
(0.00268779 -0.00126136 -0 0.00268779 -0 0.00268779)
(0.00268785 -0.00126147 -0 0.00268785 -0 0.00268785)
(0.00269422 -0.00126083 -0 0.00269422 -0 0.00269422)
(0.0026942 -0.00126083 -0 0.0026942 -0 0.0026942)
(0.00269417 -0.00126083 -0 0.00269417 -0 0.00269417)
(0.00269422 -0.00126093 -0 0.00269422 -0 0.00269422)
(0.00269683 -0.00125884 -0 0.00269683 -0 0.00269683)
(0.00269682 -0.00125885 -0 0.00269682 -0 0.00269682)
(0.00269679 -0.00125885 -0 0.00269679 -0 0.00269679)
(0.00269683 -0.00125892 -0 0.00269683 -0 0.00269683)
(0.00269589 -0.00125553 -0 0.00269589 -0 0.00269589)
(0.00269589 -0.00125554 -0 0.00269589 -0 0.00269589)
(0.00269587 -0.00125554 -0 0.00269586 -0 0.00269587)
(0.00269589 -0.00125559 -0 0.00269589 -0 0.00269589)
(0.00269159 -0.00125101 -0 0.0026916 -0 0.0026916)
(0.00269159 -0.00125101 -0 0.00269159 -0 0.00269159)
(0.00269158 -0.00125101 -0 0.00269158 -0 0.00269158)
(0.00269159 -0.00125105 -0 0.00269159 -0 0.00269159)
(0.00268411 -0.00124537 -0 0.00268411 -0 0.00268411)
(0.00268411 -0.00124537 -0 0.00268411 -0 0.00268411)
(0.0026841 -0.00124537 -0 0.0026841 -0 0.0026841)
(0.0026841 -0.00124539 -0 0.0026841 -0 0.0026841)
(0.0026736 -0.0012387 -0 0.0026736 -0 0.0026736)
(0.00267359 -0.00123869 -0 0.00267359 -0 0.00267359)
(0.00267359 -0.00123869 -0 0.00267359 -0 0.00267359)
(0.00267357 -0.00123868 -0 0.00267357 -0 0.00267357)
(0.00266018 -0.00123102 -0 0.00266018 -0 0.00266018)
(0.00266017 -0.00123101 -0 0.00266018 -0 0.00266018)
(0.00266017 -0.00123101 -0 0.00266017 -0 0.00266017)
(0.00266015 -0.00123099 -0 0.00266015 -0 0.00266015)
(0.00264397 -0.00122239 -0 0.00264397 -0 0.00264397)
(0.00264397 -0.00122237 -0 0.00264397 -0 0.00264397)
(0.00264396 -0.00122237 -0 0.00264396 -0 0.00264396)
(0.00264393 -0.00122233 -0 0.00264393 -0 0.00264393)
(0.00262507 -0.00121279 -0 0.00262507 -0 0.00262507)
(0.00262507 -0.00121277 -0 0.00262507 -0 0.00262507)
(0.00262506 -0.00121277 -0 0.00262506 -0 0.00262506)
(0.00262503 -0.00121272 -0 0.00262503 -0 0.00262503)
(0.00260355 -0.00120221 -0 0.00260355 -0 0.00260355)
(0.00260355 -0.00120221 -0 0.00260355 -0 0.00260355)
(0.00260354 -0.0012022 -0 0.00260354 -0 0.00260354)
(0.0026035 -0.00120213 -0 0.0026035 -0 0.0026035)
(0.00257947 -0.00119066 -0 0.00257948 -0 0.00257947)
(0.00257948 -0.00119066 -0 0.00257948 -0 0.00257948)
(0.00257947 -0.00119063 -0 0.00257947 -0 0.00257947)
(0.00257943 -0.00119057 -0 0.00257942 -0 0.00257943)
(0.0025529 -0.00117809 -0 0.0025529 -0 0.0025529)
(0.0025529 -0.00117809 -0 0.0025529 -0 0.0025529)
(0.00255289 -0.00117806 -0 0.00255289 -0 0.00255289)
(0.00255285 -0.00117799 -0 0.00255285 -0 0.00255285)
(0.00252386 -0.00116448 -0 0.00252386 -0 0.00252386)
(0.00252386 -0.00116448 -0 0.00252386 -0 0.00252386)
(0.00252386 -0.00116446 -0 0.00252386 -0 0.00252386)
(0.00252381 -0.00116437 -0 0.00252381 -0 0.00252381)
(0.0024924 -0.00114982 -0 0.0024924 -0 0.0024924)
(0.0024924 -0.00114982 -0 0.0024924 -0 0.0024924)
(0.0024924 -0.00114978 -0 0.0024924 -0 0.0024924)
(0.00249235 -0.0011497 -0 0.00249234 -0 0.00249234)
(0.00245855 -0.00113408 -0 0.00245855 -0 0.00245855)
(0.00245855 -0.00113408 -0 0.00245856 -0 0.00245856)
(0.00245855 -0.00113404 -0 0.00245855 -0 0.00245855)
(0.0024585 -0.00113395 -0 0.0024585 -0 0.0024585)
(0.00242235 -0.00111725 -0 0.00242235 -0 0.00242235)
(0.00242235 -0.00111723 -0 0.00242235 -0 0.00242235)
(0.00242235 -0.00111721 -0 0.00242235 -0 0.00242235)
(0.0024223 -0.00111713 -0 0.0024223 -0 0.0024223)
(0.00238383 -0.00109935 -0 0.00238383 -0 0.00238383)
(0.00238384 -0.00109933 -0 0.00238384 -0 0.00238384)
(0.00238383 -0.00109931 -0 0.00238383 -0 0.00238383)
(0.00238378 -0.00109922 -0 0.00238378 -0 0.00238378)
(0.00234304 -0.00108038 -0 0.00234304 -0 0.00234304)
(0.00234304 -0.00108037 -0 0.00234304 -0 0.00234304)
(0.00234304 -0.00108034 -0 0.00234303 -0 0.00234303)
(0.00234299 -0.00108026 -0 0.00234299 -0 0.00234299)
(0.00230001 -0.00106038 -0 0.00230001 -0 0.00230001)
(0.00230001 -0.00106037 -0 0.00230001 -0 0.00230001)
(0.00230001 -0.00106034 -0 0.0023 -0 0.0023)
(0.00229996 -0.00106027 -0 0.00229996 -0 0.00229996)
(0.00225479 -0.00103939 -0 0.00225479 -0 0.00225479)
(0.0022548 -0.00103939 -0 0.00225479 -0 0.00225479)
(0.00225478 -0.00103933 -0 0.00225478 -0 0.00225478)
(0.00225474 -0.00103929 -0 0.00225474 -0 0.00225474)
(0.00220743 -0.00101746 -0 0.00220743 -0 0.00220743)
(0.00220743 -0.00101747 -0 0.00220743 -0 0.00220743)
(0.00220742 -0.00101736 -0 0.00220741 -0 0.00220741)
(0.00220738 -0.00101739 -0 0.00220738 -0 0.00220738)
(0.00215797 -0.000994675 -0 0.00215797 -0 0.00215797)
(0.00215797 -0.000994678 -0 0.00215797 -0 0.00215797)
(0.00215795 -0.000994528 -0 0.00215795 -0 0.00215795)
(0.00215792 -0.000994621 -0 0.00215793 -0 0.00215793)
(0.00210646 -0.000971086 -0 0.00210646 -0 0.00210646)
(0.00210646 -0.000971083 -0 0.00210646 -0 0.00210646)
(0.00210642 -0.000970892 -0 0.00210642 -0 0.00210642)
(0.00210642 -0.00097105 -0 0.00210642 -0 0.00210642)
(0.00205314 -0.000946871 -0 0.00205313 -0 0.00205314)
(0.00205314 -0.000946836 -0 0.00205313 -0 0.00205313)
(0.00205309 -0.000946642 -0 0.00205309 -0 0.00205309)
(0.0020531 -0.000946867 -0 0.0020531 -0 0.0020531)
(0.00199827 -0.00092201 -0 0.00199826 -0 0.00199827)
(0.00199827 -0.000922066 -0 0.00199827 -0 0.00199827)
(0.00199822 -0.000921887 -0 0.00199822 -0 0.00199822)
(0.00199825 -0.000922122 -0 0.00199825 -0 0.00199825)
(0.00194182 -0.00089547 -0 0.00194181 -0 0.00194181)
(0.00194182 -0.000895552 -0 0.00194182 -0 0.00194182)
(0.00194177 -0.000895372 -0 0.00194177 -0 0.00194177)
(0.0019418 -0.000895611 -0 0.0019418 -0 0.0019418)
(0.00188375 -0.000867081 -0 0.00188375 -0 0.00188375)
(0.00188375 -0.00086713 -0 0.00188375 -0 0.00188375)
(0.00188371 -0.00086699 -0 0.00188371 -0 0.00188371)
(0.00188374 -0.000867208 -0 0.00188374 -0 0.00188374)
(0.00182414 -0.00083686 -0 0.00182414 -0 0.00182414)
(0.00182414 -0.000836878 -0 0.00182414 -0 0.00182414)
(0.0018241 -0.000836791 -0 0.0018241 -0 0.0018241)
(0.00182413 -0.000836974 -0 0.00182414 -0 0.00182413)
(0.00176315 -0.00080488 -0 0.00176314 -0 0.00176314)
(0.00176314 -0.000804891 -0 0.00176314 -0 0.00176314)
(0.00176311 -0.000804851 -0 0.00176311 -0 0.00176311)
(0.00176314 -0.000805018 -0 0.00176314 -0 0.00176314)
(0.00170098 -0.000771277 -0 0.00170098 -0 0.00170098)
(0.00170097 -0.000771275 -0 0.00170097 -0 0.00170097)
(0.00170094 -0.000771288 -0 0.00170095 -0 0.00170094)
(0.00170098 -0.000771455 -0 0.00170098 -0 0.00170098)
(0.00163792 -0.000736169 -0 0.00163791 -0 0.00163792)
(0.00163791 -0.00073612 -0 0.0016379 -0 0.0016379)
(0.00163788 -0.000736222 -0 0.00163788 -0 0.00163788)
(0.00163791 -0.000736405 -0 0.00163792 -0 0.00163791)
(0.00157428 -0.000699665 -0 0.00157427 -0 0.00157427)
(0.00157426 -0.000699616 -0 0.00157426 -0 0.00157426)
(0.00157423 -0.000699729 -0 0.00157424 -0 0.00157423)
(0.00157427 -0.000699972 -0 0.00157428 -0 0.00157428)
(0.00151043 -0.000661864 -0 0.00151043 -0 0.00151043)
(0.00151042 -0.000661819 -0 0.00151041 -0 0.00151041)
(0.00151038 -0.000661927 -0 0.00151039 -0 0.00151039)
(0.00151043 -0.000662249 -0 0.00151044 -0 0.00151043)
(0.00144681 -0.000622845 -0 0.0014468 -0 0.00144681)
(0.00144679 -0.000622825 -0 0.00144678 -0 0.00144679)
(0.00144675 -0.000622904 -0 0.00144676 -0 0.00144675)
(0.00144681 -0.000623315 -0 0.00144681 -0 0.00144681)
(0.00138386 -0.000582632 -0 0.00138386 -0 0.00138386)
(0.00138384 -0.000582774 -0 0.00138384 -0 0.00138384)
(0.00138381 -0.000582794 -0 0.00138381 -0 0.00138381)
(0.00138387 -0.000583215 -0 0.00138387 -0 0.00138387)
(0.0013221 -0.000541532 -0 0.0013221 -0 0.0013221)
(0.00132208 -0.000541463 -0 0.00132208 -0 0.00132208)
(0.00132205 -0.000541722 -0 0.00132205 -0 0.00132205)
(0.00132211 -0.000542006 -0 0.00132211 -0 0.00132211)
(0.00126208 -0.000499299 -0 0.00126208 -0 0.00126208)
(0.00126205 -0.000499275 -0 0.00126205 -0 0.00126205)
(0.00126203 -0.000499528 -0 0.00126203 -0 0.00126203)
(0.00126209 -0.000499794 -0 0.00126208 -0 0.00126209)
(0.00120436 -0.000456084 -0 0.00120436 -0 0.00120436)
(0.00120434 -0.00045621 -0 0.00120434 -0 0.00120434)
(0.00120432 -0.000456266 -0 0.00120432 -0 0.00120432)
(0.00120437 -0.00045661 -0 0.00120437 -0 0.00120437)
(0.00114956 -0.000411906 -0 0.00114956 -0 0.00114956)
(0.00114955 -0.000412061 -0 0.00114955 -0 0.00114955)
(0.00114952 -0.000412083 -0 0.00114952 -0 0.00114952)
(0.00114957 -0.000412477 -0 0.00114957 -0 0.00114957)
(0.00109832 -0.000366809 -0 0.00109832 -0 0.00109832)
(0.00109831 -0.000366975 -0 0.00109831 -0 0.00109831)
(0.00109828 -0.000366985 -0 0.00109828 -0 0.00109828)
(0.00109833 -0.000367388 -0 0.00109833 -0 0.00109833)
(0.00105128 -0.00032079 -0 0.00105128 -0 0.00105128)
(0.00105127 -0.000320956 -0 0.00105127 -0 0.00105127)
(0.00105124 -0.000320965 -0 0.00105124 -0 0.00105124)
(0.0010513 -0.000321354 -0 0.00105129 -0 0.00105129)
(0.00100909 -0.000273848 -0 0.00100909 -0 0.00100909)
(0.00100908 -0.000274006 -0 0.00100908 -0 0.00100908)
(0.00100906 -0.000274015 -0 0.00100905 -0 0.00100905)
(0.00100911 -0.000274376 -0 0.00100911 -0 0.00100911)
(0.000972364 -0.000225981 -0 0.000972366 -0 0.000972365)
(0.000972354 -0.000226124 -0 0.000972357 -0 0.000972356)
(0.000972329 -0.000226134 -0 0.000972327 -0 0.000972328)
(0.000972382 -0.000226452 -0 0.000972379 -0 0.00097238)
(0.00094153 -0.00017717 -0 0.000941533 -0 0.000941532)
(0.000941522 -0.000177292 -0 0.000941525 -0 0.000941523)
(0.000941498 -0.000177302 -0 0.000941496 -0 0.000941497)
(0.000941554 -0.000177567 -0 0.000941551 -0 0.000941552)
(0.00091707 -0.000127443 -0 0.000917073 -0 0.000917071)
(0.000917062 -0.00012754 -0 0.000917065 -0 0.000917063)
(0.00091704 -0.000127547 -0 0.000917037 -0 0.000917039)
(0.000917095 -0.000127746 -0 0.000917092 -0 0.000917093)
(0.000900039 -7.69181e-05 -0 0.000900043 -0 0.000900041)
(0.000900031 -7.69872e-05 -0 0.000900035 -0 0.000900033)
(0.000900011 -7.6993e-05 -0 0.000900007 -0 0.000900009)
(0.000900062 -7.71158e-05 -0 0.000900059 -0 0.00090006)
(0.000891312 -2.57521e-05 -0 0.000891316 -0 0.000891314)
(0.000891305 -2.5783e-05 -0 0.000891308 -0 0.000891307)
(0.000891286 -2.57872e-05 -0 0.000891282 -0 0.000891284)
(0.000891335 -2.58285e-05 -0 0.000891332 -0 0.000891333)
)
;

boundaryField
{
    inlet
    {
        type            cyclic;
    }
    outlet
    {
        type            cyclic;
    }
    fixedWalls-bottom
    {
        type            kqRWallFunction;
        value           nonuniform List<symmTensor> 4((8.64888e-10 -0 -0 8.64888e-10 -0 8.64888e-10) (8.64801e-10 -0 -0 8.64801e-10 -0 8.64801e-10) (8.64804e-10 -0 -0 8.64804e-10 -0 8.64804e-10) (8.64888e-10 -0 -0 8.64888e-10 -0 8.64888e-10));
    }
    fixedWalls-top
    {
        type            symmetry;
    }
    frontAndBack
    {
        type            empty;
    }
}


// ************************************************************************* //
