/*--------------------------------*- C++ -*----------------------------------*\
  =========                 |
  \\      /  F ield         | OpenFOAM: The Open Source CFD Toolbox
   \\    /   O peration     | Website:  https://openfoam.org
    \\  /    A nd           | Version:  10
     \\/     M anipulation  |
\*---------------------------------------------------------------------------*/
FoamFile
{
    format      ascii;
    class       volVectorField;
    location    "3009";
    object      U;
}
// * * * * * * * * * * * * * * * * * * * * * * * * * * * * * * * * * * * * * //

dimensions      [0 1 -1 0 0 0 0];

internalField   nonuniform List<vector> 
400
(
(0.00831256 -1.08433e-11 0)
(0.00831257 4.75104e-12 0)
(0.00831255 1.1477e-11 0)
(0.00831255 -4.75186e-12 0)
(0.0249778 -1.07488e-10 0)
(0.0249778 7.86111e-11 0)
(0.0249778 1.08816e-10 0)
(0.0249778 -7.86142e-11 0)
(0.0417987 -2.80656e-10 0)
(0.0417987 2.33844e-10 0)
(0.0417986 2.8197e-10 0)
(0.0417986 -2.33851e-10 0)
(0.058775 -5.17423e-10 0)
(0.0587751 4.78786e-10 0)
(0.058775 5.18659e-10 0)
(0.058775 -4.78796e-10 0)
(0.0759067 -7.9804e-10 0)
(0.0759067 8.17298e-10 0)
(0.0759066 7.9926e-10 0)
(0.0759067 -8.17311e-10 0)
(0.0931934 -1.10322e-09 0)
(0.0931934 1.255e-09 0)
(0.0931933 1.10444e-09 0)
(0.0931933 -1.25502e-09 0)
(0.110634 -1.41278e-09 0)
(0.110634 1.7988e-09 0)
(0.110634 1.414e-09 0)
(0.110634 -1.79882e-09 0)
(0.128229 -1.70457e-09 0)
(0.128229 2.45624e-09 0)
(0.128229 1.70579e-09 0)
(0.128229 -2.45626e-09 0)
(0.145977 -1.95412e-09 0)
(0.145977 3.23534e-09 0)
(0.145977 1.95533e-09 0)
(0.145977 -3.23536e-09 0)
(0.163876 -2.13444e-09 0)
(0.163876 4.14445e-09 0)
(0.163876 2.13564e-09 0)
(0.163876 -4.14447e-09 0)
(0.181924 -2.21587e-09 0)
(0.181924 5.19192e-09 0)
(0.181924 2.21707e-09 0)
(0.181924 -5.19194e-09 0)
(0.200119 -2.1659e-09 0)
(0.200119 6.38559e-09 0)
(0.200119 2.1671e-09 0)
(0.200119 -6.38562e-09 0)
(0.218456 -1.94915e-09 0)
(0.218456 7.73209e-09 0)
(0.218456 1.95033e-09 0)
(0.218456 -7.73212e-09 0)
(0.236931 -1.52748e-09 0)
(0.236931 9.23581e-09 0)
(0.236931 1.52866e-09 0)
(0.236931 -9.23585e-09 0)
(0.255536 -8.6061e-10 0)
(0.255536 1.08978e-08 0)
(0.255536 8.61778e-10 0)
(0.255536 -1.08978e-08 0)
(0.274264 9.29025e-11 0)
(0.274264 1.27142e-08 0)
(0.274263 -9.17453e-11 0)
(0.274264 -1.27142e-08 0)
(0.293102 1.37372e-09 0)
(0.293102 1.46753e-08 0)
(0.293102 -1.37257e-09 0)
(0.293103 -1.46753e-08 0)
(0.31204 3.01874e-09 0)
(0.312039 1.67639e-08 0)
(0.312039 -3.0176e-09 0)
(0.31204 -1.67639e-08 0)
(0.33106 5.0566e-09 0)
(0.331059 1.89548e-08 0)
(0.331059 -5.05547e-09 0)
(0.33106 -1.89548e-08 0)
(0.350145 7.50142e-09 0)
(0.350144 2.1215e-08 0)
(0.350144 -7.50031e-09 0)
(0.350145 -2.12151e-08 0)
(0.369275 1.03448e-08 0)
(0.369275 2.35051e-08 0)
(0.369275 -1.03437e-08 0)
(0.369275 -2.35052e-08 0)
(0.388429 1.35464e-08 0)
(0.388429 2.57818e-08 0)
(0.388429 -1.35453e-08 0)
(0.38843 -2.57819e-08 0)
(0.407584 1.70229e-08 0)
(0.407584 2.80026e-08 0)
(0.407584 -1.70218e-08 0)
(0.407585 -2.80026e-08 0)
(0.426717 2.06377e-08 0)
(0.426717 3.01302e-08 0)
(0.426717 -2.06366e-08 0)
(0.426718 -3.01303e-08 0)
(0.445805 2.41923e-08 0)
(0.445805 3.21384e-08 0)
(0.445805 -2.41913e-08 0)
(0.445805 -3.21385e-08 0)
(0.464827 2.74236e-08 0)
(0.464826 3.40145e-08 0)
(0.464826 -2.74226e-08 0)
(0.464827 -3.40145e-08 0)
(0.483762 3.00004e-08 0)
(0.483762 3.57635e-08 0)
(0.483762 -2.99993e-08 0)
(0.483762 -3.57636e-08 0)
(0.502594 3.14878e-08 0)
(0.502594 3.74301e-08 0)
(0.502594 -3.14868e-08 0)
(0.502594 -3.74301e-08 0)
(0.521308 3.12725e-08 0)
(0.521308 3.91391e-08 0)
(0.521308 -3.12715e-08 0)
(0.521308 -3.91392e-08 0)
(0.539894 2.87018e-08 0)
(0.539894 4.10573e-08 0)
(0.539894 -2.87008e-08 0)
(0.539894 -4.10574e-08 0)
(0.55836 2.5001e-08 0)
(0.55836 4.26181e-08 0)
(0.55836 -2.5e-08 0)
(0.558359 -4.26182e-08 0)
(0.576719 2.02059e-08 0)
(0.576719 4.38781e-08 0)
(0.576719 -2.0205e-08 0)
(0.576719 -4.38782e-08 0)
(0.594971 1.59439e-08 0)
(0.594971 4.42501e-08 0)
(0.594971 -1.5943e-08 0)
(0.59497 -4.42502e-08 0)
(0.61311 1.22133e-08 0)
(0.61311 4.38785e-08 0)
(0.61311 -1.22124e-08 0)
(0.613109 -4.38785e-08 0)
(0.631132 8.89659e-09 0)
(0.631133 4.29411e-08 0)
(0.631132 -8.89569e-09 0)
(0.631132 -4.29412e-08 0)
(0.649036 5.95016e-09 0)
(0.649036 4.15679e-08 0)
(0.649036 -5.94927e-09 0)
(0.649035 -4.15679e-08 0)
(0.666817 3.35577e-09 0)
(0.666817 3.98647e-08 0)
(0.666817 -3.3549e-09 0)
(0.666817 -3.98648e-08 0)
(0.684474 1.08904e-09 0)
(0.684474 3.7931e-08 0)
(0.684474 -1.08818e-09 0)
(0.684474 -3.79311e-08 0)
(0.702006 -8.79382e-10 0)
(0.702007 3.58617e-08 0)
(0.702007 8.80224e-10 0)
(0.702006 -3.58618e-08 0)
(0.719412 -2.57662e-09 0)
(0.719413 3.37482e-08 0)
(0.719413 2.57745e-09 0)
(0.719412 -3.37483e-08 0)
(0.736691 -4.02179e-09 0)
(0.736692 3.16794e-08 0)
(0.736692 4.0226e-09 0)
(0.736691 -3.16795e-08 0)
(0.753843 -5.21991e-09 0)
(0.753843 2.97431e-08 0)
(0.753843 5.2207e-09 0)
(0.753843 -2.97431e-08 0)
(0.770867 -6.15359e-09 0)
(0.770867 2.80262e-08 0)
(0.770868 6.15437e-09 0)
(0.770867 -2.80263e-08 0)
(0.787763 -6.77208e-09 0)
(0.787763 2.66132e-08 0)
(0.787763 6.77284e-09 0)
(0.787763 -2.66133e-08 0)
(0.804529 -6.97913e-09 0)
(0.804529 2.55817e-08 0)
(0.804529 6.97988e-09 0)
(0.804529 -2.55818e-08 0)
(0.821164 -6.62146e-09 0)
(0.821164 2.49939e-08 0)
(0.821164 6.62219e-09 0)
(0.821164 -2.49939e-08 0)
(0.837664 -5.45819e-09 0)
(0.837664 2.48741e-08 0)
(0.837664 5.4589e-09 0)
(0.837664 -2.48741e-08 0)
(0.854025 -3.05717e-09 0)
(0.854025 2.51525e-08 0)
(0.854025 3.05787e-09 0)
(0.854025 -2.51525e-08 0)
(0.870241 1.32634e-09 0)
(0.870241 2.5574e-08 0)
(0.870241 -1.32565e-09 0)
(0.870241 -2.55741e-08 0)
(0.886305 8.22417e-09 0)
(0.886304 2.57558e-08 0)
(0.886305 -8.22352e-09 0)
(0.886305 -2.57559e-08 0)
(0.902221 1.46996e-08 0)
(0.902221 2.58371e-08 0)
(0.902221 -1.46989e-08 0)
(0.902222 -2.58371e-08 0)
(0.918013 2.06766e-08 0)
(0.918013 2.52947e-08 0)
(0.918013 -2.0676e-08 0)
(0.918014 -2.52948e-08 0)
(0.933695 2.32371e-08 0)
(0.933695 2.43642e-08 0)
(0.933695 -2.32365e-08 0)
(0.933695 -2.43642e-08 0)
(0.949265 2.33182e-08 0)
(0.949265 2.27506e-08 0)
(0.949265 -2.33176e-08 0)
(0.949265 -2.27506e-08 0)
(0.964719 2.18005e-08 0)
(0.964719 2.03193e-08 0)
(0.964719 -2.17999e-08 0)
(0.964719 -2.03193e-08 0)
(0.980054 1.92296e-08 0)
(0.980054 1.71095e-08 0)
(0.980055 -1.9229e-08 0)
(0.980054 -1.71095e-08 0)
(0.995266 1.59902e-08 0)
(0.995266 1.32631e-08 0)
(0.995267 -1.59897e-08 0)
(0.995266 -1.32631e-08 0)
(1.01035 1.2381e-08 0)
(1.01035 8.92377e-09 0)
(1.01035 -1.23805e-08 0)
(1.01035 -8.92376e-09 0)
(1.0253 8.63167e-09 0)
(1.0253 4.24562e-09 0)
(1.0253 -8.63117e-09 0)
(1.0253 -4.24561e-09 0)
(1.04011 4.92287e-09 0)
(1.04011 -6.31155e-10 0)
(1.04011 -4.92239e-09 0)
(1.04011 6.31171e-10 0)
(1.05477 1.34273e-09 0)
(1.05477 -5.59215e-09 0)
(1.05477 -1.34227e-09 0)
(1.05477 5.59218e-09 0)
(1.06927 -2.05003e-09 0)
(1.06927 -1.04568e-08 0)
(1.06927 2.05048e-09 0)
(1.06927 1.04569e-08 0)
(1.08362 -5.21876e-09 0)
(1.08362 -1.5009e-08 0)
(1.08362 5.21918e-09 0)
(1.08362 1.50091e-08 0)
(1.09779 -8.08147e-09 0)
(1.09779 -1.92708e-08 0)
(1.09779 8.08187e-09 0)
(1.09779 1.92708e-08 0)
(1.11179 -1.06261e-08 0)
(1.11179 -2.3006e-08 0)
(1.11179 1.06265e-08 0)
(1.11179 2.3006e-08 0)
(1.1256 -1.28745e-08 0)
(1.1256 -2.61088e-08 0)
(1.1256 1.28748e-08 0)
(1.1256 2.61088e-08 0)
(1.13922 -1.46692e-08 0)
(1.13922 -2.85554e-08 0)
(1.13922 1.46695e-08 0)
(1.13922 2.85554e-08 0)
(1.15264 -1.61626e-08 0)
(1.15264 -3.01277e-08 0)
(1.15264 1.61629e-08 0)
(1.15264 3.01278e-08 0)
(1.16584 -1.77894e-08 0)
(1.16584 -3.11042e-08 0)
(1.16584 1.77897e-08 0)
(1.16584 3.11043e-08 0)
(1.17883 -1.98667e-08 0)
(1.17883 -3.14419e-08 0)
(1.17883 1.9867e-08 0)
(1.17883 3.1442e-08 0)
(1.19159 -2.29717e-08 0)
(1.19159 -3.08715e-08 0)
(1.19159 2.2972e-08 0)
(1.19159 3.08716e-08 0)
(1.20412 -2.68177e-08 0)
(1.20412 -2.84301e-08 0)
(1.20412 2.68179e-08 0)
(1.20412 2.84302e-08 0)
(1.21639 -3.11057e-08 0)
(1.21639 -2.33569e-08 0)
(1.21639 3.11059e-08 0)
(1.21639 2.3357e-08 0)
(1.22841 -3.52755e-08 0)
(1.22841 -1.55348e-08 0)
(1.22841 3.52757e-08 0)
(1.22841 1.5535e-08 0)
(1.24016 -3.81056e-08 0)
(1.24016 -5.86268e-09 0)
(1.24016 3.81057e-08 0)
(1.24016 5.86282e-09 0)
(1.25163 -3.85242e-08 0)
(1.25163 2.9701e-09 0)
(1.25163 3.85244e-08 0)
(1.25163 -2.96998e-09 0)
(1.2628 -3.65866e-08 0)
(1.2628 8.14296e-09 0)
(1.2628 3.65867e-08 0)
(1.2628 -8.14282e-09 0)
(1.27366 -3.25878e-08 0)
(1.27366 1.12018e-08 0)
(1.27366 3.25879e-08 0)
(1.27366 -1.12016e-08 0)
(1.2842 -2.7844e-08 0)
(1.2842 1.20967e-08 0)
(1.2842 2.78441e-08 0)
(1.2842 -1.20965e-08 0)
(1.29441 -2.28492e-08 0)
(1.29441 1.42692e-08 0)
(1.29441 2.28493e-08 0)
(1.29441 -1.4269e-08 0)
(1.30428 -1.63679e-08 0)
(1.30428 1.83362e-08 0)
(1.30428 1.63679e-08 0)
(1.30428 -1.8336e-08 0)
(1.3138 -7.43106e-09 0)
(1.3138 2.42643e-08 0)
(1.3138 7.43106e-09 0)
(1.3138 -2.4264e-08 0)
(1.32298 4.43323e-09 0)
(1.32298 3.25108e-08 0)
(1.32298 -4.4333e-09 0)
(1.32298 -3.25107e-08 0)
(1.33179 1.75906e-08 0)
(1.33179 4.36992e-08 0)
(1.33179 -1.75906e-08 0)
(1.33179 -4.3699e-08 0)
(1.34022 3.11816e-08 0)
(1.34022 5.64696e-08 0)
(1.34022 -3.11816e-08 0)
(1.34022 -5.64694e-08 0)
(1.34827 4.28897e-08 0)
(1.34827 6.79899e-08 0)
(1.34827 -4.28898e-08 0)
(1.34827 -6.79896e-08 0)
(1.35591 5.25196e-08 0)
(1.35591 7.433e-08 0)
(1.35591 -5.25199e-08 0)
(1.35591 -7.43297e-08 0)
(1.36314 6.23525e-08 0)
(1.36314 7.67164e-08 0)
(1.36314 -6.23528e-08 0)
(1.36314 -7.67158e-08 0)
(1.36994 6.68382e-08 0)
(1.36994 7.4318e-08 0)
(1.36994 -6.68386e-08 0)
(1.36994 -7.43175e-08 0)
(1.37628 6.77185e-08 0)
(1.37628 7.2111e-08 0)
(1.37628 -6.77189e-08 0)
(1.37628 -7.21103e-08 0)
(1.38216 6.58377e-08 0)
(1.38216 6.91283e-08 0)
(1.38216 -6.5838e-08 0)
(1.38216 -6.91279e-08 0)
(1.38755 6.18539e-08 0)
(1.38755 6.70104e-08 0)
(1.38755 -6.18544e-08 0)
(1.38755 -6.70099e-08 0)
(1.39243 6.04907e-08 0)
(1.39243 6.43424e-08 0)
(1.39243 -6.04912e-08 0)
(1.39243 -6.43419e-08 0)
(1.39679 5.94495e-08 0)
(1.39679 6.05701e-08 0)
(1.39679 -5.94501e-08 0)
(1.39679 -6.05696e-08 0)
(1.4006 5.68703e-08 0)
(1.4006 5.53936e-08 0)
(1.4006 -5.68708e-08 0)
(1.4006 -5.5393e-08 0)
(1.40383 5.19856e-08 0)
(1.40383 4.85283e-08 0)
(1.40383 -5.19862e-08 0)
(1.40383 -4.85277e-08 0)
(1.40647 4.46057e-08 0)
(1.40647 3.97295e-08 0)
(1.40647 -4.46063e-08 0)
(1.40647 -3.9729e-08 0)
(1.40849 3.48785e-08 0)
(1.40849 2.90097e-08 0)
(1.40849 -3.48791e-08 0)
(1.40849 -2.90093e-08 0)
(1.40986 2.30336e-08 0)
(1.40986 1.71168e-08 0)
(1.40986 -2.30336e-08 0)
(1.40986 -1.71165e-08 0)
(1.41056 8.20422e-09 0)
(1.41056 5.64218e-09 0)
(1.41057 -8.20387e-09 0)
(1.41056 -5.64201e-09 0)
)
;

boundaryField
{
    inlet
    {
        type            cyclic;
    }
    outlet
    {
        type            cyclic;
    }
    fixedWalls-bottom
    {
        type            noSlip;
    }
    fixedWalls-top
    {
        type            symmetry;
    }
    frontAndBack
    {
        type            empty;
    }
}


// ************************************************************************* //
