/*--------------------------------*- C++ -*----------------------------------*\
  =========                 |
  \\      /  F ield         | OpenFOAM: The Open Source CFD Toolbox
   \\    /   O peration     | Website:  https://openfoam.org
    \\  /    A nd           | Version:  10
     \\/     M anipulation  |
\*---------------------------------------------------------------------------*/
FoamFile
{
    format      ascii;
    class       volScalarField;
    location    "10000";
    object      k;
}
// * * * * * * * * * * * * * * * * * * * * * * * * * * * * * * * * * * * * * //

dimensions      [0 2 -2 0 0 0 0];

internalField   nonuniform List<scalar> 
400
(
2.31429e-13
2.31217e-13
2.31146e-13
2.31245e-13
6.94282e-12
6.93644e-12
6.93431e-12
6.9373e-12
4.91684e-11
4.91231e-11
4.9108e-11
4.91292e-11
1.78757e-10
1.78592e-10
1.78537e-10
1.78614e-10
4.62532e-10
4.62104e-10
4.61963e-10
4.62161e-10
9.7955e-10
9.78643e-10
9.78343e-10
9.78763e-10
1.82047e-09
1.81878e-09
1.81822e-09
1.819e-09
3.08758e-09
3.08472e-09
3.08378e-09
3.08509e-09
4.89512e-09
4.89059e-09
4.8891e-09
4.89117e-09
7.36955e-09
7.36274e-09
7.36048e-09
7.36358e-09
1.06496e-08
1.06398e-08
1.06365e-08
1.06409e-08
1.48855e-08
1.48718e-08
1.48673e-08
1.48734e-08
2.02374e-08
2.02189e-08
2.02127e-08
2.02208e-08
2.68717e-08
2.68472e-08
2.6839e-08
2.68496e-08
3.49554e-08
3.49239e-08
3.49131e-08
3.49266e-08
4.46493e-08
4.46095e-08
4.45957e-08
4.46125e-08
5.60981e-08
5.6049e-08
5.60317e-08
5.60522e-08
6.94216e-08
6.93623e-08
6.93409e-08
6.93654e-08
8.47045e-08
8.46344e-08
8.46082e-08
8.46371e-08
1.01989e-07
1.01908e-07
1.01877e-07
1.0191e-07
1.2127e-07
1.21179e-07
1.21142e-07
1.2118e-07
1.42494e-07
1.42393e-07
1.42349e-07
1.42393e-07
1.65556e-07
1.65448e-07
1.65398e-07
1.65446e-07
1.90311e-07
1.90197e-07
1.9014e-07
1.90193e-07
2.16567e-07
2.16452e-07
2.16388e-07
2.16445e-07
2.44095e-07
2.43982e-07
2.4391e-07
2.43971e-07
2.72616e-07
2.72509e-07
2.72431e-07
2.72494e-07
3.01791e-07
3.01696e-07
3.01611e-07
3.01676e-07
3.31223e-07
3.31142e-07
3.31052e-07
3.31118e-07
3.60687e-07
3.60623e-07
3.60527e-07
3.60594e-07
3.89969e-07
3.89922e-07
3.89823e-07
3.89889e-07
4.18867e-07
4.18838e-07
4.18738e-07
4.18801e-07
4.47193e-07
4.47184e-07
4.47084e-07
4.47142e-07
4.74772e-07
4.74783e-07
4.74683e-07
4.74735e-07
5.01433e-07
5.01468e-07
5.01368e-07
5.01413e-07
5.27225e-07
5.27278e-07
5.27175e-07
5.27217e-07
5.52367e-07
5.52435e-07
5.52326e-07
5.52368e-07
5.77019e-07
5.77096e-07
5.76981e-07
5.77025e-07
6.01285e-07
6.01369e-07
6.01247e-07
6.01296e-07
6.25233e-07
6.2532e-07
6.25191e-07
6.25247e-07
6.489e-07
6.48988e-07
6.48852e-07
6.48915e-07
6.72301e-07
6.72387e-07
6.72245e-07
6.72317e-07
6.95433e-07
6.95517e-07
6.95367e-07
6.9545e-07
7.18284e-07
7.18363e-07
7.18205e-07
7.18301e-07
7.40827e-07
7.409e-07
7.40733e-07
7.40843e-07
7.6303e-07
7.63095e-07
7.62919e-07
7.63046e-07
7.84855e-07
7.84911e-07
7.84724e-07
7.84871e-07
8.06259e-07
8.06303e-07
8.06104e-07
8.06274e-07
8.27192e-07
8.27223e-07
8.2701e-07
8.27206e-07
8.47603e-07
8.47616e-07
8.47387e-07
8.47613e-07
8.67433e-07
8.67426e-07
8.67178e-07
8.67438e-07
8.86613e-07
8.86591e-07
8.86321e-07
8.86618e-07
9.05079e-07
9.05044e-07
9.04748e-07
9.05087e-07
9.22762e-07
9.22713e-07
9.22388e-07
9.22774e-07
9.39586e-07
9.39522e-07
9.39166e-07
9.39602e-07
9.5547e-07
9.55389e-07
9.55e-07
9.5549e-07
9.70326e-07
9.70228e-07
9.69803e-07
9.70352e-07
9.84062e-07
9.83945e-07
9.83484e-07
9.84094e-07
9.96579e-07
9.96444e-07
9.95944e-07
9.9662e-07
1.00777e-06
1.00762e-06
1.00708e-06
1.00782e-06
1.01753e-06
1.01736e-06
1.01678e-06
1.01759e-06
1.02574e-06
1.02554e-06
1.02493e-06
1.02582e-06
1.03227e-06
1.03206e-06
1.03141e-06
1.03236e-06
1.037e-06
1.03676e-06
1.03608e-06
1.03711e-06
1.03978e-06
1.03952e-06
1.03881e-06
1.03991e-06
1.04047e-06
1.0402e-06
1.03946e-06
1.04063e-06
1.03893e-06
1.03865e-06
1.03789e-06
1.03912e-06
1.035e-06
1.03472e-06
1.03395e-06
1.03522e-06
1.02854e-06
1.02826e-06
1.02749e-06
1.0288e-06
1.01941e-06
1.01913e-06
1.01835e-06
1.01969e-06
1.00744e-06
1.00716e-06
1.00639e-06
1.00774e-06
9.9249e-07
9.92231e-07
9.91467e-07
9.92812e-07
9.74426e-07
9.74187e-07
9.73435e-07
9.74748e-07
9.53098e-07
9.52887e-07
9.52146e-07
9.53401e-07
9.28352e-07
9.28173e-07
9.27441e-07
9.28606e-07
8.99994e-07
8.9985e-07
8.99117e-07
9.00159e-07
8.67748e-07
8.67637e-07
8.66885e-07
8.67773e-07
8.31431e-07
8.31345e-07
8.30571e-07
8.31336e-07
7.91256e-07
7.91185e-07
7.90384e-07
7.91055e-07
7.47487e-07
7.47427e-07
7.46591e-07
7.47193e-07
7.00447e-07
7.00391e-07
6.99516e-07
7.00066e-07
6.50481e-07
6.50421e-07
6.49504e-07
6.50016e-07
5.98039e-07
5.97965e-07
5.9701e-07
5.97493e-07
5.43854e-07
5.43761e-07
5.42776e-07
5.43235e-07
4.89064e-07
4.8898e-07
4.88011e-07
4.88413e-07
4.35186e-07
4.35128e-07
4.34206e-07
4.34536e-07
3.83381e-07
3.83358e-07
3.82507e-07
3.8276e-07
3.34594e-07
3.34606e-07
3.33844e-07
3.34021e-07
2.89569e-07
2.89614e-07
2.8895e-07
2.8906e-07
2.48838e-07
2.48911e-07
2.48347e-07
2.48402e-07
2.12686e-07
2.1278e-07
2.12308e-07
2.12324e-07
1.81148e-07
1.81256e-07
1.80863e-07
1.80854e-07
1.54082e-07
1.54196e-07
1.53865e-07
1.53849e-07
1.31256e-07
1.3137e-07
1.31088e-07
1.31074e-07
1.12397e-07
1.12507e-07
1.12262e-07
1.12259e-07
9.72189e-08
9.73207e-08
9.71046e-08
9.7114e-08
8.54424e-08
8.55356e-08
8.53423e-08
8.53629e-08
7.68222e-08
7.69072e-08
7.67313e-08
7.67617e-08
7.11653e-08
7.12442e-08
7.10804e-08
7.11173e-08
6.83505e-08
6.84261e-08
6.82684e-08
6.83087e-08
)
;

boundaryField
{
    inlet
    {
        type            cyclic;
    }
    outlet
    {
        type            cyclic;
    }
    fixedWalls-bottom
    {
        type            kqRWallFunction;
        value           nonuniform List<scalar> 4(2.31429e-13 2.31217e-13 2.31146e-13 2.31245e-13);
    }
    fixedWalls-top
    {
        type            symmetry;
    }
    frontAndBack
    {
        type            empty;
    }
}


// ************************************************************************* //
