/*--------------------------------*- C++ -*----------------------------------*\
  =========                 |
  \\      /  F ield         | OpenFOAM: The Open Source CFD Toolbox
   \\    /   O peration     | Website:  https://openfoam.org
    \\  /    A nd           | Version:  10
     \\/     M anipulation  |
\*---------------------------------------------------------------------------*/
FoamFile
{
    format      ascii;
    class       volScalarField;
    location    "10000";
    object      nut;
}
// * * * * * * * * * * * * * * * * * * * * * * * * * * * * * * * * * * * * * //

dimensions      [0 2 -1 0 0 0 0];

internalField   nonuniform List<scalar> 
400
(
1.0811e-18
1.0801e-18
1.07977e-18
1.08024e-18
1.8959e-16
1.89416e-16
1.89358e-16
1.8944e-16
3.9914e-15
3.98773e-15
3.98651e-15
3.98823e-15
3.0894e-14
3.08655e-14
3.08561e-14
3.08694e-14
1.41344e-13
1.41213e-13
1.4117e-13
1.41231e-13
4.71911e-13
4.71473e-13
4.71329e-13
4.71534e-13
1.28043e-12
1.27924e-12
1.27885e-12
1.27941e-12
3.00217e-12
2.99935e-12
2.99844e-12
2.99977e-12
6.31952e-12
6.31355e-12
6.31164e-12
6.31451e-12
1.22516e-11
1.22399e-11
1.22363e-11
1.22419e-11
2.22773e-11
2.22558e-11
2.22492e-11
2.22598e-11
3.85177e-11
3.84799e-11
3.84686e-11
3.84876e-11
6.40191e-11
6.39543e-11
6.39357e-11
6.39683e-11
1.03197e-10
1.03087e-10
1.03058e-10
1.03112e-10
1.6253e-10
1.62346e-10
1.623e-10
1.62388e-10
2.51637e-10
2.51327e-10
2.51257e-10
2.51397e-10
3.84938e-10
3.84414e-10
3.84307e-10
3.84527e-10
5.8423e-10
5.83333e-10
5.83171e-10
5.83516e-10
8.82679e-10
8.81131e-10
8.80884e-10
8.81429e-10
1.33107e-09
1.32838e-09
1.328e-09
1.32887e-09
2.00758e-09
2.00289e-09
2.00231e-09
2.00372e-09
3.03325e-09
3.02505e-09
3.02412e-09
3.02647e-09
4.5962e-09
4.58186e-09
4.58032e-09
4.58437e-09
6.98967e-09
6.96467e-09
6.96232e-09
6.96917e-09
1.06705e-08
1.06276e-08
1.06237e-08
1.06355e-08
1.63463e-08
1.62743e-08
1.62671e-08
1.62878e-08
2.5097e-08
2.49804e-08
2.49651e-08
2.50028e-08
3.68506e-08
3.6839e-08
3.68286e-08
3.68366e-08
4.07712e-08
4.07613e-08
4.07501e-08
4.07583e-08
4.47648e-08
4.47568e-08
4.4745e-08
4.47532e-08
4.88078e-08
4.8802e-08
4.87897e-08
4.87978e-08
5.28777e-08
5.28742e-08
5.28615e-08
5.28694e-08
5.69528e-08
5.69516e-08
5.69388e-08
5.69463e-08
6.1012e-08
6.10135e-08
6.10006e-08
6.10074e-08
6.50349e-08
6.50394e-08
6.50264e-08
6.50323e-08
6.90281e-08
6.90351e-08
6.90216e-08
6.90271e-08
7.30219e-08
7.30308e-08
7.30165e-08
7.3022e-08
7.7039e-08
7.70494e-08
7.7034e-08
7.70399e-08
8.10963e-08
8.11076e-08
8.10912e-08
8.10978e-08
8.52061e-08
8.52179e-08
8.52004e-08
8.5208e-08
8.93771e-08
8.93892e-08
8.93705e-08
8.93792e-08
9.36155e-08
9.36276e-08
9.36077e-08
9.36178e-08
9.79255e-08
9.79373e-08
9.79161e-08
9.79279e-08
1.0231e-07
1.02321e-07
1.02298e-07
1.02312e-07
1.06769e-07
1.0678e-07
1.06756e-07
1.06772e-07
1.11305e-07
1.11315e-07
1.11289e-07
1.11307e-07
1.15917e-07
1.15925e-07
1.15897e-07
1.15919e-07
1.20603e-07
1.2061e-07
1.2058e-07
1.20605e-07
1.25363e-07
1.25367e-07
1.25335e-07
1.25365e-07
1.30194e-07
1.30196e-07
1.30161e-07
1.30195e-07
1.35093e-07
1.35092e-07
1.35053e-07
1.35094e-07
1.40055e-07
1.40052e-07
1.40009e-07
1.40056e-07
1.45077e-07
1.45072e-07
1.45024e-07
1.45079e-07
1.50153e-07
1.50145e-07
1.50092e-07
1.50155e-07
1.55277e-07
1.55267e-07
1.55208e-07
1.5528e-07
1.60442e-07
1.60428e-07
1.60363e-07
1.60445e-07
1.65638e-07
1.65621e-07
1.65549e-07
1.65642e-07
1.70855e-07
1.70835e-07
1.70755e-07
1.70861e-07
1.76083e-07
1.76059e-07
1.7597e-07
1.7609e-07
1.81305e-07
1.81277e-07
1.8118e-07
1.81314e-07
1.86508e-07
1.86476e-07
1.8637e-07
1.86519e-07
1.91672e-07
1.91635e-07
1.91521e-07
1.91686e-07
1.96777e-07
1.96735e-07
1.96611e-07
1.96794e-07
2.01799e-07
2.01752e-07
2.01619e-07
2.01819e-07
2.06709e-07
2.06658e-07
2.06517e-07
2.06735e-07
2.11478e-07
2.11424e-07
2.11274e-07
2.1151e-07
2.16071e-07
2.16014e-07
2.15856e-07
2.1611e-07
2.20449e-07
2.20389e-07
2.20225e-07
2.20497e-07
2.24569e-07
2.24507e-07
2.24338e-07
2.24625e-07
2.28384e-07
2.28321e-07
2.28147e-07
2.28447e-07
2.31839e-07
2.31776e-07
2.31598e-07
2.3191e-07
2.34876e-07
2.34814e-07
2.34633e-07
2.34952e-07
2.37428e-07
2.3737e-07
2.37186e-07
2.37506e-07
2.39419e-07
2.39366e-07
2.3918e-07
2.39495e-07
2.4076e-07
2.40714e-07
2.40524e-07
2.40826e-07
2.41337e-07
2.41298e-07
2.41102e-07
2.41381e-07
2.40994e-07
2.40964e-07
2.40755e-07
2.41001e-07
2.39579e-07
2.39554e-07
2.39331e-07
2.39551e-07
2.37028e-07
2.37007e-07
2.36767e-07
2.36968e-07
2.33282e-07
2.33264e-07
2.33003e-07
2.33191e-07
2.28284e-07
2.28266e-07
2.27981e-07
2.2816e-07
2.2197e-07
2.21949e-07
2.21636e-07
2.21811e-07
2.14295e-07
2.14268e-07
2.13926e-07
2.14099e-07
1.85502e-07
1.83205e-07
1.79454e-07
1.83448e-07
1.1708e-07
1.15931e-07
1.13773e-07
1.15889e-07
7.71089e-08
7.65521e-08
7.52338e-08
7.64074e-08
5.22514e-08
5.20226e-08
5.1206e-08
5.18508e-08
3.62798e-08
3.62466e-08
3.57423e-08
3.60835e-08
2.5937e-08
2.59193e-08
2.56264e-08
2.57967e-08
1.91288e-08
1.91227e-08
1.89505e-08
1.90296e-08
1.45732e-08
1.45752e-08
1.44671e-08
1.45043e-08
1.13907e-08
1.13966e-08
1.1318e-08
1.13413e-08
9.04827e-09
9.05581e-09
8.99218e-09
9.01296e-09
7.29234e-09
7.30063e-09
7.24766e-09
7.26915e-09
5.98741e-09
5.99572e-09
5.95084e-09
5.97367e-09
5.032e-09
5.03967e-09
5.00102e-09
5.02509e-09
4.35315e-09
4.35989e-09
4.32602e-09
4.35097e-09
3.89858e-09
3.90434e-09
3.87402e-09
3.89957e-09
3.63381e-09
3.63877e-09
3.6108e-09
3.63673e-09
3.53849e-09
3.54289e-09
3.51594e-09
3.54221e-09
)
;

boundaryField
{
    inlet
    {
        type            cyclic;
    }
    outlet
    {
        type            cyclic;
    }
    fixedWalls-bottom
    {
        type            nutkWallFunction;
        Cmu             0.09;
        kappa           0.41;
        E               9.8;
        value           uniform 0;
    }
    fixedWalls-top
    {
        type            symmetry;
    }
    frontAndBack
    {
        type            empty;
    }
}


// ************************************************************************* //
