/*--------------------------------*- C++ -*----------------------------------*\
  =========                 |
  \\      /  F ield         | OpenFOAM: The Open Source CFD Toolbox
   \\    /   O peration     | Website:  https://openfoam.org
    \\  /    A nd           | Version:  10
     \\/     M anipulation  |
\*---------------------------------------------------------------------------*/
FoamFile
{
    format      ascii;
    class       volSymmTensorField;
    location    "10000";
    object      R;
}
// * * * * * * * * * * * * * * * * * * * * * * * * * * * * * * * * * * * * * //

dimensions      [0 2 -2 0 0 0 0];

internalField   nonuniform List<symmTensor> 
400
(
(1.54286e-13 -3.23574e-18 -0 1.54286e-13 -0 1.54286e-13)
(1.54144e-13 -3.23276e-18 -0 1.54144e-13 -0 1.54144e-13)
(1.54097e-13 -3.23177e-18 -0 1.54097e-13 -0 1.54097e-13)
(1.54164e-13 -3.23316e-18 -0 1.54164e-13 -0 1.54164e-13)
(4.62855e-12 -5.64803e-16 -0 4.62855e-12 -0 4.62855e-12)
(4.62429e-12 -5.64285e-16 -0 4.62429e-12 -0 4.62429e-12)
(4.62287e-12 -5.64112e-16 -0 4.62287e-12 -0 4.62287e-12)
(4.62487e-12 -5.64355e-16 -0 4.62487e-12 -0 4.62487e-12)
(3.27789e-11 -1.18342e-14 -0 3.27789e-11 -0 3.27789e-11)
(3.27487e-11 -1.18234e-14 -0 3.27487e-11 -0 3.27487e-11)
(3.27387e-11 -1.18197e-14 -0 3.27387e-11 -0 3.27387e-11)
(3.27528e-11 -1.18248e-14 -0 3.27528e-11 -0 3.27528e-11)
(1.19172e-10 -9.11558e-14 -0 1.19172e-10 -0 1.19172e-10)
(1.19061e-10 -9.10719e-14 -0 1.19061e-10 -0 1.19061e-10)
(1.19025e-10 -9.1044e-14 -0 1.19025e-10 -0 1.19025e-10)
(1.19076e-10 -9.10833e-14 -0 1.19076e-10 -0 1.19076e-10)
(3.08355e-10 -4.14994e-13 -0 3.08355e-10 -0 3.08355e-10)
(3.08069e-10 -4.14611e-13 -0 3.08069e-10 -0 3.08069e-10)
(3.07975e-10 -4.14484e-13 -0 3.07975e-10 -0 3.07975e-10)
(3.08108e-10 -4.14664e-13 -0 3.08108e-10 -0 3.08108e-10)
(6.53034e-10 -1.3786e-12 -0 6.53034e-10 -0 6.53034e-10)
(6.52429e-10 -1.37732e-12 -0 6.52429e-10 -0 6.52429e-10)
(6.52229e-10 -1.3769e-12 -0 6.52229e-10 -0 6.52229e-10)
(6.52509e-10 -1.3775e-12 -0 6.52509e-10 -0 6.52509e-10)
(1.21365e-09 -3.72141e-12 -0 1.21365e-09 -0 1.21365e-09)
(1.21252e-09 -3.71794e-12 -0 1.21252e-09 -0 1.21252e-09)
(1.21215e-09 -3.7168e-12 -0 1.21215e-09 -0 1.21215e-09)
(1.21267e-09 -3.71844e-12 -0 1.21267e-09 -0 1.21267e-09)
(2.05839e-09 -8.67989e-12 -0 2.05839e-09 -0 2.05839e-09)
(2.05648e-09 -8.67174e-12 -0 2.05648e-09 -0 2.05648e-09)
(2.05585e-09 -8.66911e-12 -0 2.05585e-09 -0 2.05585e-09)
(2.05673e-09 -8.67298e-12 -0 2.05673e-09 -0 2.05673e-09)
(3.26342e-09 -1.81739e-11 -0 3.26342e-09 -0 3.26342e-09)
(3.2604e-09 -1.81567e-11 -0 3.2604e-09 -0 3.2604e-09)
(3.2594e-09 -1.81512e-11 -0 3.2594e-09 -0 3.2594e-09)
(3.26078e-09 -1.81595e-11 -0 3.26078e-09 -0 3.26078e-09)
(4.91303e-09 -3.50425e-11 -0 4.91303e-09 -0 4.91303e-09)
(4.90849e-09 -3.50092e-11 -0 4.90849e-09 -0 4.90849e-09)
(4.90699e-09 -3.49987e-11 -0 4.90699e-09 -0 4.90699e-09)
(4.90905e-09 -3.50149e-11 -0 4.90905e-09 -0 4.90905e-09)
(7.09972e-09 -6.33662e-11 -0 7.09972e-09 -0 7.09972e-09)
(7.09317e-09 -6.33052e-11 -0 7.09317e-09 -0 7.09317e-09)
(7.091e-09 -6.32864e-11 -0 7.091e-09 -0 7.091e-09)
(7.09395e-09 -6.33166e-11 -0 7.09395e-09 -0 7.09395e-09)
(9.92368e-09 -1.08943e-10 -0 9.92368e-09 -0 9.92368e-09)
(9.91455e-09 -1.08836e-10 -0 9.91455e-09 -0 9.91455e-09)
(9.91151e-09 -1.08804e-10 -0 9.91151e-09 -0 9.91151e-09)
(9.91558e-09 -1.08858e-10 -0 9.91558e-09 -0 9.91558e-09)
(1.34916e-08 -1.8003e-10 -0 1.34916e-08 -0 1.34916e-08)
(1.34793e-08 -1.79848e-10 -0 1.34793e-08 -0 1.34793e-08)
(1.34751e-08 -1.79796e-10 -0 1.34751e-08 -0 1.34751e-08)
(1.34806e-08 -1.79887e-10 -0 1.34806e-08 -0 1.34806e-08)
(1.79145e-08 -2.88502e-10 -0 1.79145e-08 -0 1.79145e-08)
(1.78981e-08 -2.88195e-10 -0 1.78981e-08 -0 1.78981e-08)
(1.78926e-08 -2.88113e-10 -0 1.78926e-08 -0 1.78926e-08)
(1.78997e-08 -2.88265e-10 -0 1.78997e-08 -0 1.78997e-08)
(2.33036e-08 -4.51657e-10 -0 2.33036e-08 -0 2.33036e-08)
(2.32826e-08 -4.51146e-10 -0 2.32826e-08 -0 2.32826e-08)
(2.32754e-08 -4.51018e-10 -0 2.32754e-08 -0 2.32754e-08)
(2.32844e-08 -4.51263e-10 -0 2.32844e-08 -0 2.32844e-08)
(2.97662e-08 -6.9501e-10 -0 2.97662e-08 -0 2.97662e-08)
(2.97397e-08 -6.94156e-10 -0 2.97397e-08 -0 2.97397e-08)
(2.97305e-08 -6.93961e-10 -0 2.97305e-08 -0 2.97305e-08)
(2.97417e-08 -6.94348e-10 -0 2.97417e-08 -0 2.97417e-08)
(3.73988e-08 -1.05656e-09 -0 3.73988e-08 -0 3.73988e-08)
(3.7366e-08 -1.05512e-09 -0 3.7366e-08 -0 3.7366e-08)
(3.73545e-08 -1.05483e-09 -0 3.73545e-08 -0 3.73545e-08)
(3.73681e-08 -1.05543e-09 -0 3.73681e-08 -0 3.73681e-08)
(4.62811e-08 -1.59338e-09 -0 4.62811e-08 -0 4.62811e-08)
(4.62415e-08 -1.59093e-09 -0 4.62415e-08 -0 4.62415e-08)
(4.62272e-08 -1.59049e-09 -0 4.62272e-08 -0 4.62272e-08)
(4.62436e-08 -1.59143e-09 -0 4.62436e-08 -0 4.62436e-08)
(5.64697e-08 -2.39173e-09 -0 5.64697e-08 -0 5.64697e-08)
(5.64229e-08 -2.38754e-09 -0 5.64229e-08 -0 5.64229e-08)
(5.64055e-08 -2.38687e-09 -0 5.64055e-08 -0 5.64055e-08)
(5.64247e-08 -2.38834e-09 -0 5.64247e-08 -0 5.64247e-08)
(6.79928e-08 -3.58282e-09 -0 6.79928e-08 -0 6.79928e-08)
(6.79387e-08 -3.57558e-09 -0 6.79387e-08 -0 6.79387e-08)
(6.79178e-08 -3.57456e-09 -0 6.79178e-08 -0 6.79178e-08)
(6.79401e-08 -3.57691e-09 -0 6.79401e-08 -0 6.79401e-08)
(8.08469e-08 -5.36728e-09 -0 8.08469e-08 -0 8.08469e-08)
(8.07859e-08 -5.35473e-09 -0 8.07859e-08 -0 8.07859e-08)
(8.07611e-08 -5.35316e-09 -0 8.07611e-08 -0 8.07611e-08)
(8.07866e-08 -5.35695e-09 -0 8.07866e-08 -0 8.07866e-08)
(9.49958e-08 -8.05345e-09 -0 9.49958e-08 -0 9.49958e-08)
(9.49286e-08 -8.03167e-09 -0 9.49286e-08 -0 9.49286e-08)
(9.48995e-08 -8.0292e-09 -0 9.48995e-08 -0 9.48995e-08)
(9.49283e-08 -8.03545e-09 -0 9.49283e-08 -0 9.49283e-08)
(1.10371e-07 -1.21172e-08 -0 1.10371e-07 -0 1.10371e-07)
(1.10299e-07 -1.20794e-08 -0 1.10299e-07 -0 1.10299e-07)
(1.10265e-07 -1.20753e-08 -0 1.10265e-07 -0 1.10265e-07)
(1.10297e-07 -1.2086e-08 -0 1.10297e-07 -0 1.10297e-07)
(1.26874e-07 -1.82946e-08 -0 1.26874e-07 -0 1.26874e-07)
(1.26798e-07 -1.82291e-08 -0 1.26798e-07 -0 1.26798e-07)
(1.2676e-07 -1.8223e-08 -0 1.2676e-07 -0 1.2676e-07)
(1.26795e-07 -1.82409e-08 -0 1.26795e-07 -0 1.26795e-07)
(1.44378e-07 -2.77234e-08 -0 1.44378e-07 -0 1.44378e-07)
(1.44301e-07 -2.76119e-08 -0 1.44301e-07 -0 1.44301e-07)
(1.44259e-07 -2.76018e-08 -0 1.44259e-07 -0 1.44259e-07)
(1.44297e-07 -2.76323e-08 -0 1.44297e-07 -0 1.44297e-07)
(1.6273e-07 -4.21509e-08 -0 1.6273e-07 -0 1.6273e-07)
(1.62655e-07 -4.19654e-08 -0 1.62655e-07 -0 1.62655e-07)
(1.62607e-07 -4.19468e-08 -0 1.62607e-07 -0 1.62607e-07)
(1.62647e-07 -4.2e-08 -0 1.62647e-07 -0 1.62647e-07)
(1.81744e-07 -6.4219e-08 -0 1.81744e-07 -0 1.81744e-07)
(1.81673e-07 -6.39209e-08 -0 1.81673e-07 -0 1.81673e-07)
(1.81621e-07 -6.38817e-08 -0 1.81621e-07 -0 1.81621e-07)
(1.81663e-07 -6.3978e-08 -0 1.81663e-07 -0 1.81663e-07)
(2.01194e-07 -9.35551e-08 -0 2.01194e-07 -0 2.01194e-07)
(2.0113e-07 -9.35256e-08 -0 2.0113e-07 -0 2.0113e-07)
(2.01074e-07 -9.34993e-08 -0 2.01074e-07 -0 2.01074e-07)
(2.01117e-07 -9.35196e-08 -0 2.01117e-07 -0 2.01117e-07)
(2.20815e-07 -1.02679e-07 -0 2.20815e-07 -0 2.20815e-07)
(2.20761e-07 -1.02654e-07 -0 2.20761e-07 -0 2.20761e-07)
(2.20701e-07 -1.02626e-07 -0 2.20701e-07 -0 2.20701e-07)
(2.20745e-07 -1.02647e-07 -0 2.20745e-07 -0 2.20745e-07)
(2.40458e-07 -1.11813e-07 -0 2.40458e-07 -0 2.40458e-07)
(2.40415e-07 -1.11793e-07 -0 2.40415e-07 -0 2.40415e-07)
(2.40351e-07 -1.11763e-07 -0 2.40351e-07 -0 2.40351e-07)
(2.40396e-07 -1.11784e-07 -0 2.40396e-07 -0 2.40396e-07)
(2.59979e-07 -1.2089e-07 -0 2.59979e-07 -0 2.59979e-07)
(2.59948e-07 -1.20876e-07 -0 2.59948e-07 -0 2.59948e-07)
(2.59882e-07 -1.20845e-07 -0 2.59882e-07 -0 2.59882e-07)
(2.59926e-07 -1.20865e-07 -0 2.59926e-07 -0 2.59926e-07)
(2.79245e-07 -1.29849e-07 -0 2.79245e-07 -0 2.79245e-07)
(2.79226e-07 -1.2984e-07 -0 2.79226e-07 -0 2.79226e-07)
(2.79159e-07 -1.29809e-07 -0 2.79159e-07 -0 2.79159e-07)
(2.79201e-07 -1.29828e-07 -0 2.79201e-07 -0 2.79201e-07)
(2.98129e-07 -1.3863e-07 -0 2.98129e-07 -0 2.98129e-07)
(2.98123e-07 -1.38627e-07 -0 2.98123e-07 -0 2.98123e-07)
(2.98056e-07 -1.38596e-07 -0 2.98056e-07 -0 2.98056e-07)
(2.98095e-07 -1.38614e-07 -0 2.98095e-07 -0 2.98095e-07)
(3.16514e-07 -1.47179e-07 -0 3.16514e-07 -0 3.16514e-07)
(3.16522e-07 -1.47183e-07 -0 3.16522e-07 -0 3.16522e-07)
(3.16455e-07 -1.47152e-07 -0 3.16455e-07 -0 3.16455e-07)
(3.1649e-07 -1.47168e-07 -0 3.1649e-07 -0 3.1649e-07)
(3.34289e-07 -1.55444e-07 -0 3.34289e-07 -0 3.34289e-07)
(3.34312e-07 -1.55455e-07 -0 3.34312e-07 -0 3.34312e-07)
(3.34245e-07 -1.55424e-07 -0 3.34245e-07 -0 3.34245e-07)
(3.34275e-07 -1.55438e-07 -0 3.34275e-07 -0 3.34275e-07)
(3.51483e-07 -1.6344e-07 -0 3.51483e-07 -0 3.51483e-07)
(3.51519e-07 -1.63456e-07 -0 3.51519e-07 -0 3.51519e-07)
(3.5145e-07 -1.63424e-07 -0 3.5145e-07 -0 3.5145e-07)
(3.51478e-07 -1.63437e-07 -0 3.51478e-07 -0 3.51478e-07)
(3.68245e-07 -1.71234e-07 -0 3.68245e-07 -0 3.68245e-07)
(3.6829e-07 -1.71255e-07 -0 3.6829e-07 -0 3.6829e-07)
(3.68217e-07 -1.71221e-07 -0 3.68217e-07 -0 3.68217e-07)
(3.68245e-07 -1.71234e-07 -0 3.68245e-07 -0 3.68245e-07)
(3.84679e-07 -1.78876e-07 -0 3.84679e-07 -0 3.84679e-07)
(3.84731e-07 -1.789e-07 -0 3.84731e-07 -0 3.84731e-07)
(3.84654e-07 -1.78864e-07 -0 3.84654e-07 -0 3.84654e-07)
(3.84684e-07 -1.78878e-07 -0 3.84684e-07 -0 3.84684e-07)
(4.00857e-07 -1.86398e-07 -0 4.00857e-07 -0 4.00857e-07)
(4.00912e-07 -1.86424e-07 -0 4.00912e-07 -0 4.00912e-07)
(4.00831e-07 -1.86387e-07 -0 4.00831e-07 -0 4.00831e-07)
(4.00864e-07 -1.86402e-07 -0 4.00864e-07 -0 4.00864e-07)
(4.16822e-07 -1.93822e-07 -0 4.16822e-07 -0 4.16822e-07)
(4.1688e-07 -1.93849e-07 -0 4.1688e-07 -0 4.1688e-07)
(4.16794e-07 -1.93809e-07 -0 4.16794e-07 -0 4.16794e-07)
(4.16831e-07 -1.93826e-07 -0 4.16831e-07 -0 4.16831e-07)
(4.326e-07 -2.01159e-07 -0 4.326e-07 -0 4.326e-07)
(4.32658e-07 -2.01186e-07 -0 4.32658e-07 -0 4.32658e-07)
(4.32568e-07 -2.01144e-07 -0 4.32568e-07 -0 4.32568e-07)
(4.3261e-07 -2.01164e-07 -0 4.3261e-07 -0 4.3261e-07)
(4.482e-07 -2.08413e-07 -0 4.482e-07 -0 4.482e-07)
(4.48258e-07 -2.0844e-07 -0 4.48258e-07 -0 4.48258e-07)
(4.48163e-07 -2.08396e-07 -0 4.48163e-07 -0 4.48163e-07)
(4.48211e-07 -2.08418e-07 -0 4.48211e-07 -0 4.48211e-07)
(4.63622e-07 -2.15584e-07 -0 4.63622e-07 -0 4.63622e-07)
(4.63678e-07 -2.1561e-07 -0 4.63678e-07 -0 4.63678e-07)
(4.63578e-07 -2.15564e-07 -0 4.63578e-07 -0 4.63578e-07)
(4.63634e-07 -2.1559e-07 -0 4.63634e-07 -0 4.63634e-07)
(4.78856e-07 -2.22668e-07 -0 4.78856e-07 -0 4.78856e-07)
(4.78909e-07 -2.22692e-07 -0 4.78909e-07 -0 4.78909e-07)
(4.78803e-07 -2.22643e-07 -0 4.78803e-07 -0 4.78803e-07)
(4.78867e-07 -2.22673e-07 -0 4.78867e-07 -0 4.78867e-07)
(4.93884e-07 -2.29656e-07 -0 4.93884e-07 -0 4.93884e-07)
(4.93933e-07 -2.29679e-07 -0 4.93933e-07 -0 4.93933e-07)
(4.93822e-07 -2.29627e-07 -0 4.93822e-07 -0 4.93822e-07)
(4.93895e-07 -2.29661e-07 -0 4.93895e-07 -0 4.93895e-07)
(5.08687e-07 -2.36539e-07 -0 5.08687e-07 -0 5.08687e-07)
(5.0873e-07 -2.3656e-07 -0 5.0873e-07 -0 5.0873e-07)
(5.08613e-07 -2.36505e-07 -0 5.08613e-07 -0 5.08613e-07)
(5.08697e-07 -2.36544e-07 -0 5.08697e-07 -0 5.08697e-07)
(5.23237e-07 -2.43305e-07 -0 5.23237e-07 -0 5.23237e-07)
(5.23274e-07 -2.43322e-07 -0 5.23274e-07 -0 5.23274e-07)
(5.23149e-07 -2.43264e-07 -0 5.23149e-07 -0 5.23149e-07)
(5.23247e-07 -2.4331e-07 -0 5.23247e-07 -0 5.23247e-07)
(5.37506e-07 -2.4994e-07 -0 5.37506e-07 -0 5.37506e-07)
(5.37535e-07 -2.49954e-07 -0 5.37535e-07 -0 5.37535e-07)
(5.37403e-07 -2.49892e-07 -0 5.37403e-07 -0 5.37403e-07)
(5.37516e-07 -2.49945e-07 -0 5.37516e-07 -0 5.37516e-07)
(5.51462e-07 -2.5643e-07 -0 5.51462e-07 -0 5.51462e-07)
(5.51482e-07 -2.56439e-07 -0 5.51482e-07 -0 5.51482e-07)
(5.5134e-07 -2.56373e-07 -0 5.5134e-07 -0 5.5134e-07)
(5.5147e-07 -2.56434e-07 -0 5.5147e-07 -0 5.5147e-07)
(5.65068e-07 -2.62757e-07 -0 5.65068e-07 -0 5.65068e-07)
(5.65077e-07 -2.62761e-07 -0 5.65077e-07 -0 5.65077e-07)
(5.64925e-07 -2.6269e-07 -0 5.64925e-07 -0 5.64925e-07)
(5.65075e-07 -2.6276e-07 -0 5.65075e-07 -0 5.65075e-07)
(5.78289e-07 -2.68904e-07 -0 5.78289e-07 -0 5.78289e-07)
(5.78284e-07 -2.68902e-07 -0 5.78284e-07 -0 5.78284e-07)
(5.78119e-07 -2.68825e-07 -0 5.78119e-07 -0 5.78119e-07)
(5.78292e-07 -2.68906e-07 -0 5.78292e-07 -0 5.78292e-07)
(5.91076e-07 -2.7485e-07 -0 5.91076e-07 -0 5.91076e-07)
(5.91061e-07 -2.74843e-07 -0 5.91061e-07 -0 5.91061e-07)
(5.9088e-07 -2.74759e-07 -0 5.9088e-07 -0 5.9088e-07)
(5.91079e-07 -2.74852e-07 -0 5.91079e-07 -0 5.91079e-07)
(6.03386e-07 -2.80575e-07 -0 6.03386e-07 -0 6.03386e-07)
(6.03363e-07 -2.80564e-07 -0 6.03363e-07 -0 6.03363e-07)
(6.03165e-07 -2.80472e-07 -0 6.03165e-07 -0 6.03165e-07)
(6.03392e-07 -2.80577e-07 -0 6.03392e-07 -0 6.03392e-07)
(6.15175e-07 -2.86056e-07 -0 6.15175e-07 -0 6.15175e-07)
(6.15142e-07 -2.86041e-07 -0 6.15142e-07 -0 6.15142e-07)
(6.14925e-07 -2.8594e-07 -0 6.14925e-07 -0 6.14925e-07)
(6.15183e-07 -2.8606e-07 -0 6.15183e-07 -0 6.15183e-07)
(6.26391e-07 -2.91272e-07 -0 6.26391e-07 -0 6.26391e-07)
(6.26348e-07 -2.91252e-07 -0 6.26348e-07 -0 6.26348e-07)
(6.2611e-07 -2.91141e-07 -0 6.2611e-07 -0 6.2611e-07)
(6.26401e-07 -2.91277e-07 -0 6.26401e-07 -0 6.26401e-07)
(6.3698e-07 -2.96196e-07 -0 6.3698e-07 -0 6.3698e-07)
(6.36926e-07 -2.96171e-07 -0 6.36926e-07 -0 6.36926e-07)
(6.36666e-07 -2.9605e-07 -0 6.36666e-07 -0 6.36666e-07)
(6.36993e-07 -2.96202e-07 -0 6.36993e-07 -0 6.36993e-07)
(6.46884e-07 -3.00801e-07 -0 6.46884e-07 -0 6.46884e-07)
(6.46818e-07 -3.00771e-07 -0 6.46818e-07 -0 6.46818e-07)
(6.46535e-07 -3.00639e-07 -0 6.46535e-07 -0 6.46535e-07)
(6.46901e-07 -3.00809e-07 -0 6.46901e-07 -0 6.46901e-07)
(6.56041e-07 -3.05059e-07 -0 6.56041e-07 -0 6.56041e-07)
(6.55964e-07 -3.05023e-07 -0 6.55964e-07 -0 6.55964e-07)
(6.55656e-07 -3.0488e-07 -0 6.55656e-07 -0 6.55656e-07)
(6.56063e-07 -3.05069e-07 -0 6.56063e-07 -0 6.56063e-07)
(6.64386e-07 -3.0894e-07 -0 6.64386e-07 -0 6.64386e-07)
(6.64296e-07 -3.08898e-07 -0 6.64296e-07 -0 6.64296e-07)
(6.63963e-07 -3.08743e-07 -0 6.63963e-07 -0 6.63963e-07)
(6.64413e-07 -3.08952e-07 -0 6.64413e-07 -0 6.64413e-07)
(6.71849e-07 -3.1241e-07 -0 6.71849e-07 -0 6.71849e-07)
(6.71746e-07 -3.12362e-07 -0 6.71746e-07 -0 6.71746e-07)
(6.71387e-07 -3.12195e-07 -0 6.71387e-07 -0 6.71387e-07)
(6.71882e-07 -3.12425e-07 -0 6.71882e-07 -0 6.71882e-07)
(6.78356e-07 -3.15436e-07 -0 6.78356e-07 -0 6.78356e-07)
(6.78239e-07 -3.15381e-07 -0 6.78239e-07 -0 6.78239e-07)
(6.77854e-07 -3.15202e-07 -0 6.77854e-07 -0 6.77854e-07)
(6.78397e-07 -3.15454e-07 -0 6.78397e-07 -0 6.78397e-07)
(6.83828e-07 -3.1798e-07 -0 6.83828e-07 -0 6.83828e-07)
(6.83697e-07 -3.17919e-07 -0 6.83697e-07 -0 6.83697e-07)
(6.83287e-07 -3.17729e-07 -0 6.83287e-07 -0 6.83287e-07)
(6.83877e-07 -3.18003e-07 -0 6.83877e-07 -0 6.83877e-07)
(6.88183e-07 -3.20005e-07 -0 6.88183e-07 -0 6.88183e-07)
(6.88037e-07 -3.19937e-07 -0 6.88037e-07 -0 6.88037e-07)
(6.87604e-07 -3.19736e-07 -0 6.87604e-07 -0 6.87604e-07)
(6.88242e-07 -3.20033e-07 -0 6.88242e-07 -0 6.88242e-07)
(6.91333e-07 -3.2147e-07 -0 6.91333e-07 -0 6.91333e-07)
(6.91174e-07 -3.21396e-07 -0 6.91174e-07 -0 6.91174e-07)
(6.90718e-07 -3.21184e-07 -0 6.90718e-07 -0 6.90718e-07)
(6.91404e-07 -3.21503e-07 -0 6.91404e-07 -0 6.91404e-07)
(6.93186e-07 -3.22331e-07 -0 6.93186e-07 -0 6.93186e-07)
(6.93015e-07 -3.22252e-07 -0 6.93015e-07 -0 6.93015e-07)
(6.9254e-07 -3.22031e-07 -0 6.9254e-07 -0 6.9254e-07)
(6.93272e-07 -3.22371e-07 -0 6.93272e-07 -0 6.93272e-07)
(6.93647e-07 -3.22546e-07 -0 6.93647e-07 -0 6.93647e-07)
(6.93467e-07 -3.22462e-07 -0 6.93467e-07 -0 6.93467e-07)
(6.92976e-07 -3.22234e-07 -0 6.92976e-07 -0 6.92976e-07)
(6.93751e-07 -3.22594e-07 -0 6.93751e-07 -0 6.93751e-07)
(6.92618e-07 -3.22067e-07 -0 6.92618e-07 -0 6.92618e-07)
(6.92433e-07 -3.21981e-07 -0 6.92433e-07 -0 6.92433e-07)
(6.91929e-07 -3.21747e-07 -0 6.91929e-07 -0 6.91929e-07)
(6.92744e-07 -3.22126e-07 -0 6.92744e-07 -0 6.92744e-07)
(6.90001e-07 -3.20851e-07 -0 6.90001e-07 -0 6.90001e-07)
(6.89813e-07 -3.20763e-07 -0 6.89813e-07 -0 6.89813e-07)
(6.893e-07 -3.20525e-07 -0 6.893e-07 -0 6.893e-07)
(6.90149e-07 -3.2092e-07 -0 6.90149e-07 -0 6.90149e-07)
(6.85697e-07 -3.18849e-07 -0 6.85697e-07 -0 6.85697e-07)
(6.85508e-07 -3.18761e-07 -0 6.85508e-07 -0 6.85508e-07)
(6.8499e-07 -3.1852e-07 -0 6.8499e-07 -0 6.8499e-07)
(6.85867e-07 -3.18928e-07 -0 6.85867e-07 -0 6.85867e-07)
(6.79604e-07 -3.16016e-07 -0 6.79604e-07 -0 6.79604e-07)
(6.79417e-07 -3.15929e-07 -0 6.79417e-07 -0 6.79417e-07)
(6.78899e-07 -3.15688e-07 -0 6.78899e-07 -0 6.78899e-07)
(6.79794e-07 -3.16104e-07 -0 6.79794e-07 -0 6.79794e-07)
(6.71624e-07 -3.12305e-07 -0 6.71624e-07 -0 6.71624e-07)
(6.71442e-07 -3.12221e-07 -0 6.71442e-07 -0 6.71442e-07)
(6.70927e-07 -3.11981e-07 -0 6.70927e-07 -0 6.70927e-07)
(6.71829e-07 -3.12401e-07 -0 6.71829e-07 -0 6.71829e-07)
(6.6166e-07 -3.07672e-07 -0 6.6166e-07 -0 6.6166e-07)
(6.61488e-07 -3.07592e-07 -0 6.61488e-07 -0 6.61488e-07)
(6.60978e-07 -3.07355e-07 -0 6.60978e-07 -0 6.60978e-07)
(6.61875e-07 -3.07772e-07 -0 6.61875e-07 -0 6.61875e-07)
(6.49617e-07 -3.02072e-07 -0 6.49617e-07 -0 6.49617e-07)
(6.49458e-07 -3.01998e-07 -0 6.49458e-07 -0 6.49458e-07)
(6.48956e-07 -3.01765e-07 -0 6.48956e-07 -0 6.48956e-07)
(6.49832e-07 -3.02172e-07 -0 6.49832e-07 -0 6.49832e-07)
(6.35399e-07 -2.95461e-07 -0 6.35399e-07 -0 6.35399e-07)
(6.35258e-07 -2.95395e-07 -0 6.35258e-07 -0 6.35258e-07)
(6.34764e-07 -2.95165e-07 -0 6.34764e-07 -0 6.34764e-07)
(6.35601e-07 -2.95554e-07 -0 6.35601e-07 -0 6.35601e-07)
(6.18901e-07 -2.87789e-07 -0 6.18901e-07 -0 6.18901e-07)
(6.18782e-07 -2.87734e-07 -0 6.18782e-07 -0 6.18782e-07)
(6.18294e-07 -2.87507e-07 -0 6.18294e-07 -0 6.18294e-07)
(6.1907e-07 -2.87868e-07 -0 6.1907e-07 -0 6.1907e-07)
(5.99996e-07 -2.78998e-07 -0 5.99996e-07 -0 5.99996e-07)
(5.999e-07 -2.78953e-07 -0 5.999e-07 -0 5.999e-07)
(5.99411e-07 -2.78726e-07 -0 5.99411e-07 -0 5.99411e-07)
(6.00106e-07 -2.79049e-07 -0 6.00106e-07 -0 6.00106e-07)
(5.78499e-07 -2.69002e-07 -0 5.78499e-07 -0 5.78499e-07)
(5.78425e-07 -2.68968e-07 -0 5.78425e-07 -0 5.78425e-07)
(5.77923e-07 -2.68734e-07 -0 5.77923e-07 -0 5.77923e-07)
(5.78515e-07 -2.69009e-07 -0 5.78515e-07 -0 5.78515e-07)
(5.54288e-07 -2.57744e-07 -0 5.54288e-07 -0 5.54288e-07)
(5.5423e-07 -2.57717e-07 -0 5.5423e-07 -0 5.5423e-07)
(5.53714e-07 -2.57477e-07 -0 5.53714e-07 -0 5.53714e-07)
(5.54224e-07 -2.57714e-07 -0 5.54224e-07 -0 5.54224e-07)
(5.27504e-07 -2.45289e-07 -0 5.27504e-07 -0 5.27504e-07)
(5.27457e-07 -2.45267e-07 -0 5.27457e-07 -0 5.27457e-07)
(5.26923e-07 -2.45019e-07 -0 5.26923e-07 -0 5.26923e-07)
(5.2737e-07 -2.45227e-07 -0 5.2737e-07 -0 5.2737e-07)
(4.98325e-07 -2.31721e-07 -0 4.98325e-07 -0 4.98325e-07)
(4.98285e-07 -2.31702e-07 -0 4.98285e-07 -0 4.98285e-07)
(4.97728e-07 -2.31443e-07 -0 4.97728e-07 -0 4.97728e-07)
(4.98129e-07 -2.3163e-07 -0 4.98129e-07 -0 4.98129e-07)
(4.66964e-07 -2.17138e-07 -0 4.66964e-07 -0 4.66964e-07)
(4.66927e-07 -2.17121e-07 -0 4.66927e-07 -0 4.66927e-07)
(4.66344e-07 -2.1685e-07 -0 4.66344e-07 -0 4.66344e-07)
(4.6671e-07 -2.1702e-07 -0 4.6671e-07 -0 4.6671e-07)
(4.33654e-07 -2.01649e-07 -0 4.33654e-07 -0 4.33654e-07)
(4.33614e-07 -2.0163e-07 -0 4.33614e-07 -0 4.33614e-07)
(4.33003e-07 -2.01346e-07 -0 4.33003e-07 -0 4.33003e-07)
(4.33344e-07 -2.01505e-07 -0 4.33344e-07 -0 4.33344e-07)
(3.98693e-07 -1.85392e-07 -0 3.98693e-07 -0 3.98693e-07)
(3.98643e-07 -1.85369e-07 -0 3.98643e-07 -0 3.98643e-07)
(3.98007e-07 -1.85073e-07 -0 3.98007e-07 -0 3.98007e-07)
(3.98328e-07 -1.85223e-07 -0 3.98328e-07 -0 3.98328e-07)
(3.62569e-07 -1.52332e-07 -0 3.62569e-07 -0 3.62569e-07)
(3.62507e-07 -1.50446e-07 -0 3.62507e-07 -0 3.62507e-07)
(3.61851e-07 -1.47366e-07 -0 3.61851e-07 -0 3.61851e-07)
(3.62156e-07 -1.50646e-07 -0 3.62156e-07 -0 3.62156e-07)
(3.26043e-07 -9.09288e-08 -0 3.26043e-07 -0 3.26043e-07)
(3.25987e-07 -9.00365e-08 -0 3.25987e-07 -0 3.25987e-07)
(3.25341e-07 -8.83606e-08 -0 3.25341e-07 -0 3.25341e-07)
(3.25609e-07 -9.0004e-08 -0 3.25609e-07 -0 3.25609e-07)
(2.90124e-07 -5.64015e-08 -0 2.90124e-07 -0 2.90124e-07)
(2.90085e-07 -5.59942e-08 -0 2.90085e-07 -0 2.90085e-07)
(2.89471e-07 -5.503e-08 -0 2.89471e-07 -0 2.89471e-07)
(2.89691e-07 -5.58884e-08 -0 2.89691e-07 -0 2.89691e-07)
(2.55588e-07 -3.58252e-08 -0 2.55588e-07 -0 2.55588e-07)
(2.55572e-07 -3.56683e-08 -0 2.55572e-07 -0 2.55572e-07)
(2.55005e-07 -3.51084e-08 -0 2.55005e-07 -0 2.55005e-07)
(2.55173e-07 -3.55505e-08 -0 2.55173e-07 -0 2.55173e-07)
(2.23063e-07 -2.31887e-08 -0 2.23063e-07 -0 2.23063e-07)
(2.23071e-07 -2.31675e-08 -0 2.23071e-07 -0 2.23071e-07)
(2.22563e-07 -2.28451e-08 -0 2.22563e-07 -0 2.22563e-07)
(2.22681e-07 -2.30632e-08 -0 2.22681e-07 -0 2.22681e-07)
(1.93046e-07 -1.53557e-08 -0 1.93046e-07 -0 1.93046e-07)
(1.93076e-07 -1.53452e-08 -0 1.93076e-07 -0 1.93076e-07)
(1.92633e-07 -1.51718e-08 -0 1.92633e-07 -0 1.92633e-07)
(1.92706e-07 -1.52727e-08 -0 1.92706e-07 -0 1.92706e-07)
(1.65892e-07 -1.04108e-08 -0 1.65892e-07 -0 1.65892e-07)
(1.65941e-07 -1.04075e-08 -0 1.65941e-07 -0 1.65941e-07)
(1.65565e-07 -1.03138e-08 -0 1.65565e-07 -0 1.65565e-07)
(1.65601e-07 -1.03568e-08 -0 1.65601e-07 -0 1.65601e-07)
(1.4179e-07 -7.22519e-09 -0 1.4179e-07 -0 1.4179e-07)
(1.41853e-07 -7.22619e-09 -0 1.41853e-07 -0 1.41853e-07)
(1.41538e-07 -7.17256e-09 -0 1.41538e-07 -0 1.41538e-07)
(1.41549e-07 -7.19102e-09 -0 1.41549e-07 -0 1.41549e-07)
(1.20765e-07 -5.08754e-09 -0 1.20765e-07 -0 1.20765e-07)
(1.20837e-07 -5.09018e-09 -0 1.20837e-07 -0 1.20837e-07)
(1.20575e-07 -5.05506e-09 -0 1.20575e-07 -0 1.20575e-07)
(1.20569e-07 -5.06545e-09 -0 1.20569e-07 -0 1.20569e-07)
(1.02722e-07 -3.59035e-09 -0 1.02722e-07 -0 1.02722e-07)
(1.02797e-07 -3.59334e-09 -0 1.02797e-07 -0 1.02797e-07)
(1.02577e-07 -3.5681e-09 -0 1.02577e-07 -0 1.02577e-07)
(1.02566e-07 -3.57634e-09 -0 1.02566e-07 -0 1.02566e-07)
(8.75041e-08 -2.52503e-09 -0 8.75041e-08 -0 8.75041e-08)
(8.75799e-08 -2.52789e-09 -0 8.75799e-08 -0 8.75799e-08)
(8.73919e-08 -2.50955e-09 -0 8.73919e-08 -0 8.73919e-08)
(8.73829e-08 -2.517e-09 -0 8.73829e-08 -0 8.73829e-08)
(7.49316e-08 -1.7663e-09 -0 7.49316e-08 -0 7.49316e-08)
(7.50045e-08 -1.76875e-09 -0 7.50045e-08 -0 7.50045e-08)
(7.48415e-08 -1.75551e-09 -0 7.48415e-08 -0 7.48415e-08)
(7.48392e-08 -1.76224e-09 -0 7.48392e-08 -0 7.48392e-08)
(6.48126e-08 -1.22289e-09 -0 6.48126e-08 -0 6.48126e-08)
(6.48805e-08 -1.22476e-09 -0 6.48805e-08 -0 6.48805e-08)
(6.47364e-08 -1.21537e-09 -0 6.47364e-08 -0 6.47364e-08)
(6.47426e-08 -1.22121e-09 -0 6.47426e-08 -0 6.47426e-08)
(5.69616e-08 -8.2846e-10 -0 5.69616e-08 -0 5.69616e-08)
(5.70237e-08 -8.29741e-10 -0 5.70237e-08 -0 5.70237e-08)
(5.68949e-08 -8.23296e-10 -0 5.68949e-08 -0 5.68949e-08)
(5.69086e-08 -8.28044e-10 -0 5.69086e-08 -0 5.69086e-08)
(5.12148e-08 -5.33553e-10 -0 5.12148e-08 -0 5.12148e-08)
(5.12714e-08 -5.3434e-10 -0 5.12714e-08 -0 5.12714e-08)
(5.11542e-08 -5.30191e-10 -0 5.11542e-08 -0 5.11542e-08)
(5.11744e-08 -5.33688e-10 -0 5.11744e-08 -0 5.11744e-08)
(4.74436e-08 -3.00333e-10 -0 4.74436e-08 -0 4.74436e-08)
(4.74962e-08 -3.00743e-10 -0 4.74962e-08 -0 4.74962e-08)
(4.73869e-08 -2.98432e-10 -0 4.73869e-08 -0 4.73869e-08)
(4.74116e-08 -3.00575e-10 -0 4.74116e-08 -0 4.74116e-08)
(4.5567e-08 -9.79379e-11 -0 4.5567e-08 -0 4.5567e-08)
(4.56174e-08 -9.80598e-11 -0 4.56174e-08 -0 4.56174e-08)
(4.55123e-08 -9.73138e-11 -0 4.55123e-08 -0 4.55123e-08)
(4.55391e-08 -9.8041e-11 -0 4.55391e-08 -0 4.55391e-08)
)
;

boundaryField
{
    inlet
    {
        type            cyclic;
    }
    outlet
    {
        type            cyclic;
    }
    fixedWalls-bottom
    {
        type            kqRWallFunction;
        value           nonuniform List<symmTensor> 4((1.54286e-13 -0 -0 1.54286e-13 -0 1.54286e-13) (1.54144e-13 -0 -0 1.54144e-13 -0 1.54144e-13) (1.54097e-13 -0 -0 1.54097e-13 -0 1.54097e-13) (1.54164e-13 -0 -0 1.54164e-13 -0 1.54164e-13));
    }
    fixedWalls-top
    {
        type            symmetry;
    }
    frontAndBack
    {
        type            empty;
    }
}


// ************************************************************************* //
