/*--------------------------------*- C++ -*----------------------------------*\
  =========                 |
  \\      /  F ield         | OpenFOAM: The Open Source CFD Toolbox
   \\    /   O peration     | Website:  https://openfoam.org
    \\  /    A nd           | Version:  10
     \\/     M anipulation  |
\*---------------------------------------------------------------------------*/
FoamFile
{
    format      ascii;
    class       volVectorField;
    location    "10000";
    object      U;
}
// * * * * * * * * * * * * * * * * * * * * * * * * * * * * * * * * * * * * * //

dimensions      [0 1 -1 0 0 0 0];

internalField   nonuniform List<vector> 
400
(
(0.00692045 1.4993e-15 0)
(0.00692045 -3.75327e-15 0)
(0.00692045 -2.15454e-15 0)
(0.00692045 3.74632e-15 0)
(0.0207946 2.92088e-14 0)
(0.0207946 -4.62955e-14 0)
(0.0207946 -3.28095e-14 0)
(0.0207946 4.62936e-14 0)
(0.0347983 9.2764e-14 0)
(0.0347983 -1.28811e-13 0)
(0.0347983 -9.53459e-14 0)
(0.0347983 1.28788e-13 0)
(0.0489315 1.89529e-13 0)
(0.0489315 -2.51225e-13 0)
(0.0489315 -1.9208e-13 0)
(0.0489315 2.51188e-13 0)
(0.063194 3.20497e-13 0)
(0.063194 -4.10163e-13 0)
(0.063194 -3.22951e-13 0)
(0.063194 4.10111e-13 0)
(0.0775857 4.85995e-13 0)
(0.0775857 -6.02726e-13 0)
(0.0775857 -4.88389e-13 0)
(0.0775857 6.02658e-13 0)
(0.0921064 6.86721e-13 0)
(0.0921064 -8.26108e-13 0)
(0.0921064 -6.89043e-13 0)
(0.0921064 8.26025e-13 0)
(0.106756 9.23246e-13 0)
(0.106756 -1.0772e-12 0)
(0.106756 -9.25492e-13 0)
(0.106756 1.0771e-12 0)
(0.121533 1.19604e-12 0)
(0.121533 -1.35252e-12 0)
(0.121533 -1.19821e-12 0)
(0.121533 1.35241e-12 0)
(0.136439 1.50547e-12 0)
(0.136439 -1.64826e-12 0)
(0.136439 -1.50756e-12 0)
(0.136439 1.64813e-12 0)
(0.151472 1.85182e-12 0)
(0.151472 -1.96028e-12 0)
(0.151472 -1.85383e-12 0)
(0.151472 1.96013e-12 0)
(0.166632 2.23524e-12 0)
(0.166632 -2.28412e-12 0)
(0.166632 -2.23717e-12 0)
(0.166632 2.28395e-12 0)
(0.181918 2.65581e-12 0)
(0.181918 -2.61499e-12 0)
(0.181918 -2.65766e-12 0)
(0.181918 2.61481e-12 0)
(0.19733 3.11348e-12 0)
(0.19733 -2.94787e-12 0)
(0.19733 -3.11526e-12 0)
(0.19733 2.94767e-12 0)
(0.212866 3.6081e-12 0)
(0.212866 -3.27746e-12 0)
(0.212866 -3.6098e-12 0)
(0.212866 3.27724e-12 0)
(0.228527 4.13937e-12 0)
(0.228527 -3.59835e-12 0)
(0.228527 -4.14099e-12 0)
(0.228527 3.59811e-12 0)
(0.24431 4.70686e-12 0)
(0.24431 -3.90512e-12 0)
(0.24431 -4.7084e-12 0)
(0.24431 3.90487e-12 0)
(0.260215 5.30996e-12 0)
(0.260215 -4.19267e-12 0)
(0.260215 -5.31142e-12 0)
(0.260215 4.19239e-12 0)
(0.276241 5.94785e-12 0)
(0.276241 -4.4567e-12 0)
(0.276241 -5.94923e-12 0)
(0.276241 4.45641e-12 0)
(0.292387 6.61932e-12 0)
(0.292387 -4.69476e-12 0)
(0.292387 -6.62063e-12 0)
(0.292387 4.69445e-12 0)
(0.30865 7.32257e-12 0)
(0.30865 -4.90796e-12 0)
(0.30865 -7.3238e-12 0)
(0.30865 4.90763e-12 0)
(0.325031 8.05485e-12 0)
(0.325031 -5.10376e-12 0)
(0.325031 -8.056e-12 0)
(0.325031 5.10341e-12 0)
(0.341526 8.81176e-12 0)
(0.341526 -5.29997e-12 0)
(0.341526 -8.81284e-12 0)
(0.341526 5.2996e-12 0)
(0.358135 9.58532e-12 0)
(0.358135 -5.53297e-12 0)
(0.358135 -9.58632e-12 0)
(0.358135 5.53258e-12 0)
(0.374856 1.03579e-11 0)
(0.374856 -5.8901e-12 0)
(0.374856 -1.03588e-11 0)
(0.374856 5.8897e-12 0)
(0.391686 1.10887e-11 0)
(0.391686 -6.58075e-12 0)
(0.391686 -1.10896e-11 0)
(0.391686 6.58032e-12 0)
(0.408625 1.17127e-11 0)
(0.408625 -7.95395e-12 0)
(0.408625 -1.17135e-11 0)
(0.408625 7.9535e-12 0)
(0.425669 1.22985e-11 0)
(0.425669 -9.71538e-12 0)
(0.425669 -1.22993e-11 0)
(0.425669 9.71491e-12 0)
(0.442816 1.28184e-11 0)
(0.442816 -1.20113e-11 0)
(0.442816 -1.28191e-11 0)
(0.442816 1.20109e-11 0)
(0.460064 1.3378e-11 0)
(0.460064 -1.43241e-11 0)
(0.460064 -1.33786e-11 0)
(0.460064 1.43236e-11 0)
(0.477411 1.39705e-11 0)
(0.477411 -1.66419e-11 0)
(0.477411 -1.3971e-11 0)
(0.477411 1.66414e-11 0)
(0.494853 1.45825e-11 0)
(0.494853 -1.89759e-11 0)
(0.494853 -1.4583e-11 0)
(0.494853 1.89754e-11 0)
(0.512387 1.52064e-11 0)
(0.512387 -2.13072e-11 0)
(0.512387 -1.52067e-11 0)
(0.512387 2.13067e-11 0)
(0.530012 1.58364e-11 0)
(0.530012 -2.36017e-11 0)
(0.530012 -1.58367e-11 0)
(0.530012 2.36012e-11 0)
(0.547723 1.64681e-11 0)
(0.547723 -2.58199e-11 0)
(0.547723 -1.64684e-11 0)
(0.547723 2.58193e-11 0)
(0.565517 1.70974e-11 0)
(0.565517 -2.79239e-11 0)
(0.565517 -1.70976e-11 0)
(0.565517 2.79233e-11 0)
(0.58339 1.77211e-11 0)
(0.58339 -2.98773e-11 0)
(0.58339 -1.77212e-11 0)
(0.58339 2.98767e-11 0)
(0.601339 1.83351e-11 0)
(0.601339 -3.16506e-11 0)
(0.601339 -1.83352e-11 0)
(0.601339 3.16499e-11 0)
(0.61936 1.89347e-11 0)
(0.61936 -3.32197e-11 0)
(0.61936 -1.89348e-11 0)
(0.61936 3.3219e-11 0)
(0.637449 1.95138e-11 0)
(0.637449 -3.45646e-11 0)
(0.637449 -1.95137e-11 0)
(0.637449 3.45639e-11 0)
(0.655601 2.00654e-11 0)
(0.655601 -3.56681e-11 0)
(0.655601 -2.00653e-11 0)
(0.655601 3.56673e-11 0)
(0.673812 2.05825e-11 0)
(0.673812 -3.65149e-11 0)
(0.673812 -2.05824e-11 0)
(0.673812 3.65142e-11 0)
(0.692077 2.10582e-11 0)
(0.692077 -3.70919e-11 0)
(0.692077 -2.1058e-11 0)
(0.692077 3.70911e-11 0)
(0.71039 2.14861e-11 0)
(0.71039 -3.73874e-11 0)
(0.71039 -2.14859e-11 0)
(0.71039 3.73866e-11 0)
(0.728748 2.18605e-11 0)
(0.728748 -3.73915e-11 0)
(0.728748 -2.18602e-11 0)
(0.728748 3.73907e-11 0)
(0.747144 2.21767e-11 0)
(0.747144 -3.70958e-11 0)
(0.747144 -2.21764e-11 0)
(0.747144 3.7095e-11 0)
(0.765573 2.24309e-11 0)
(0.765573 -3.64944e-11 0)
(0.765573 -2.24306e-11 0)
(0.765573 3.64936e-11 0)
(0.784028 2.26207e-11 0)
(0.784028 -3.55838e-11 0)
(0.784028 -2.26203e-11 0)
(0.784028 3.5583e-11 0)
(0.802504 2.27447e-11 0)
(0.802504 -3.43646e-11 0)
(0.802504 -2.27442e-11 0)
(0.802504 3.43637e-11 0)
(0.820993 2.28024e-11 0)
(0.820993 -3.28423e-11 0)
(0.820993 -2.28019e-11 0)
(0.820993 3.28415e-11 0)
(0.83949 2.27936e-11 0)
(0.83949 -3.10284e-11 0)
(0.83949 -2.2793e-11 0)
(0.83949 3.10275e-11 0)
(0.857986 2.27206e-11 0)
(0.857986 -2.89414e-11 0)
(0.857986 -2.272e-11 0)
(0.857986 2.89405e-11 0)
(0.876475 2.25899e-11 0)
(0.876475 -2.66027e-11 0)
(0.876475 -2.25893e-11 0)
(0.876475 2.66018e-11 0)
(0.894949 2.24119e-11 0)
(0.894949 -2.404e-11 0)
(0.894949 -2.24113e-11 0)
(0.894949 2.40391e-11 0)
(0.913399 2.22002e-11 0)
(0.913399 -2.12842e-11 0)
(0.913399 -2.21995e-11 0)
(0.913399 2.12833e-11 0)
(0.931818 2.1968e-11 0)
(0.931818 -1.83726e-11 0)
(0.931818 -2.19673e-11 0)
(0.931818 1.83717e-11 0)
(0.950197 2.17285e-11 0)
(0.950197 -1.53501e-11 0)
(0.950197 -2.17277e-11 0)
(0.950197 1.53492e-11 0)
(0.968526 2.1494e-11 0)
(0.968526 -1.22702e-11 0)
(0.968526 -2.14932e-11 0)
(0.968526 1.22693e-11 0)
(0.986796 2.12749e-11 0)
(0.986796 -9.19513e-12 0)
(0.986796 -2.12742e-11 0)
(0.986796 9.19416e-12 0)
(1.005 2.10778e-11 0)
(1.005 -6.19603e-12 0)
(1.005 -2.1077e-11 0)
(1.005 6.19505e-12 0)
(1.02312 2.09026e-11 0)
(1.02312 -3.35282e-12 0)
(1.02312 -2.09018e-11 0)
(1.02312 3.35183e-12 0)
(1.04115 2.07403e-11 0)
(1.04115 -7.53483e-13 0)
(1.04115 -2.07395e-11 0)
(1.04115 7.52489e-13 0)
(1.05909 2.05692e-11 0)
(1.05909 1.50754e-12 0)
(1.05909 -2.05684e-11 0)
(1.05909 -1.50854e-12 0)
(1.07691 2.03509e-11 0)
(1.07691 3.33239e-12 0)
(1.07691 -2.03501e-11 0)
(1.07691 -3.3334e-12 0)
(1.0946 2.00262e-11 0)
(1.0946 4.6255e-12 0)
(1.0946 -2.00253e-11 0)
(1.0946 -4.62652e-12 0)
(1.11216 1.95105e-11 0)
(1.11216 5.30266e-12 0)
(1.11216 -1.95096e-11 0)
(1.11216 -5.30369e-12 0)
(1.12957 1.86902e-11 0)
(1.12957 5.29893e-12 0)
(1.12957 -1.86893e-11 0)
(1.12957 -5.29995e-12 0)
(1.14682 1.74187e-11 0)
(1.14682 4.57688e-12 0)
(1.14682 -1.74177e-11 0)
(1.14682 -4.5779e-12 0)
(1.16389 1.55157e-11 0)
(1.16389 3.13454e-12 0)
(1.16389 -1.55148e-11 0)
(1.16389 -3.13555e-12 0)
(1.18077 1.27687e-11 0)
(1.18077 1.0144e-12 0)
(1.18077 -1.27678e-11 0)
(1.18077 -1.01541e-12 0)
(1.19744 8.93798e-12 0)
(1.19744 -1.6826e-12 0)
(1.19744 -8.93706e-12 0)
(1.19744 1.6816e-12 0)
(1.21389 3.7673e-12 0)
(1.21389 -4.77997e-12 0)
(1.21389 -3.76638e-12 0)
(1.21389 4.77897e-12 0)
(1.23011 -2.99997e-12 0)
(1.23011 -8.00629e-12 0)
(1.23011 3.0009e-12 0)
(1.23011 8.00529e-12 0)
(1.24607 -1.1596e-11 0)
(1.24607 -1.09744e-11 0)
(1.24607 1.15969e-11 0)
(1.24607 1.09734e-11 0)
(1.26175 -2.21857e-11 0)
(1.26175 -1.31638e-11 0)
(1.26175 2.21866e-11 0)
(1.26175 1.31628e-11 0)
(1.27715 -3.4796e-11 0)
(1.27715 -1.39135e-11 0)
(1.27715 3.47969e-11 0)
(1.27715 1.39125e-11 0)
(1.29224 -4.92226e-11 0)
(1.29224 -1.24421e-11 0)
(1.29224 4.92235e-11 0)
(1.29224 1.24411e-11 0)
(1.30701 -6.51562e-11 0)
(1.30701 -7.83598e-12 0)
(1.30701 6.51571e-11 0)
(1.30701 7.83503e-12 0)
(1.32142 -8.20775e-11 0)
(1.32142 8.46472e-13 0)
(1.32142 8.20783e-11 0)
(1.32142 -8.47401e-13 0)
(1.33547 -9.93708e-11 0)
(1.33547 1.4684e-11 0)
(1.33547 9.93717e-11 0)
(1.33547 -1.46849e-11 0)
(1.34913 -1.16124e-10 0)
(1.34913 3.56548e-11 0)
(1.34913 1.16125e-10 0)
(1.34913 -3.56557e-11 0)
(1.36237 -1.30948e-10 0)
(1.36237 6.78345e-11 0)
(1.36237 1.30949e-10 0)
(1.36237 -6.78354e-11 0)
(1.37518 -1.42033e-10 0)
(1.37518 1.13538e-10 0)
(1.37518 1.42033e-10 0)
(1.37518 -1.13538e-10 0)
(1.38754 -1.49286e-10 0)
(1.38754 1.34628e-10 0)
(1.38754 1.49286e-10 0)
(1.38754 -1.34629e-10 0)
(1.39941 -1.4922e-10 0)
(1.39941 1.44252e-10 0)
(1.39941 1.49221e-10 0)
(1.39941 -1.44253e-10 0)
(1.41077 -1.43149e-10 0)
(1.41077 1.15833e-10 0)
(1.41077 1.4315e-10 0)
(1.41077 -1.15833e-10 0)
(1.42159 -1.30744e-10 0)
(1.42159 7.67706e-11 0)
(1.42159 1.30745e-10 0)
(1.42159 -7.67712e-11 0)
(1.43186 -1.13621e-10 0)
(1.43186 4.10695e-11 0)
(1.43186 1.13622e-10 0)
(1.43186 -4.10701e-11 0)
(1.44153 -9.40978e-11 0)
(1.44153 1.26362e-11 0)
(1.44153 9.40983e-11 0)
(1.44153 -1.26368e-11 0)
(1.45059 -7.42208e-11 0)
(1.45059 -7.93416e-12 0)
(1.45059 7.42212e-11 0)
(1.45059 7.93363e-12 0)
(1.45899 -5.55978e-11 0)
(1.45899 -2.15065e-11 0)
(1.45899 5.55983e-11 0)
(1.45899 2.1506e-11 0)
(1.46671 -3.92211e-11 0)
(1.46671 -2.92374e-11 0)
(1.46671 3.92215e-11 0)
(1.46671 2.9237e-11 0)
(1.47372 -2.56114e-11 0)
(1.47372 -3.23825e-11 0)
(1.47372 2.56117e-11 0)
(1.47372 3.23821e-11 0)
(1.47999 -1.49404e-11 0)
(1.47999 -3.21527e-11 0)
(1.47999 1.49407e-11 0)
(1.47999 3.21523e-11 0)
(1.48547 -7.13371e-12 0)
(1.48547 -2.95819e-11 0)
(1.48547 7.13394e-12 0)
(1.48547 2.95817e-11 0)
(1.49013 -1.94799e-12 0)
(1.49013 -2.54771e-11 0)
(1.49013 1.94818e-12 0)
(1.49013 2.54769e-11 0)
(1.49394 9.76183e-13 0)
(1.49394 -2.04313e-11 0)
(1.49394 -9.76037e-13 0)
(1.49394 2.04312e-11 0)
(1.49686 2.07136e-12 0)
(1.49686 -1.48508e-11 0)
(1.49686 -2.07126e-12 0)
(1.49686 1.48507e-11 0)
(1.49885 1.81252e-12 0)
(1.49885 -8.99424e-12 0)
(1.49885 -1.81249e-12 0)
(1.49885 8.99421e-12 0)
(1.49986 6.92973e-13 0)
(1.49986 -3.01293e-12 0)
(1.49986 -6.92955e-13 0)
(1.49986 3.01291e-12 0)
)
;

boundaryField
{
    inlet
    {
        type            cyclic;
    }
    outlet
    {
        type            cyclic;
    }
    fixedWalls-bottom
    {
        type            noSlip;
    }
    fixedWalls-top
    {
        type            symmetry;
    }
    frontAndBack
    {
        type            empty;
    }
}


// ************************************************************************* //
