/*--------------------------------*- C++ -*----------------------------------*\
  =========                 |
  \\      /  F ield         | OpenFOAM: The Open Source CFD Toolbox
   \\    /   O peration     | Website:  https://openfoam.org
    \\  /    A nd           | Version:  10
     \\/     M anipulation  |
\*---------------------------------------------------------------------------*/
FoamFile
{
    format      ascii;
    class       volScalarField;
    location    "1318";
    object      k;
}
// * * * * * * * * * * * * * * * * * * * * * * * * * * * * * * * * * * * * * //

dimensions      [0 2 -2 0 0 0 0];

internalField   nonuniform List<scalar> 
200
(
2.55564e-09
2.55559e-09
2.55542e-09
2.55542e-09
7.72089e-08
7.72073e-08
7.72022e-08
7.72022e-08
5.587e-07
5.58688e-07
5.58652e-07
5.58652e-07
2.08226e-06
2.08222e-06
2.08209e-06
2.08209e-06
5.52498e-06
5.52487e-06
5.52451e-06
5.52451e-06
1.19944e-05
1.19941e-05
1.19933e-05
1.19933e-05
2.28347e-05
2.28342e-05
2.28328e-05
2.28328e-05
3.96317e-05
3.9631e-05
3.96285e-05
3.96285e-05
6.4204e-05
6.42028e-05
6.41988e-05
6.41989e-05
9.85689e-05
9.85672e-05
9.85611e-05
9.85612e-05
0.000144871
0.000144869
0.00014486
0.00014486
0.000205262
0.000205259
0.000205246
0.000205247
0.00028172
0.000281716
0.000281699
0.000281701
0.000375821
0.000375817
0.000375795
0.000375798
0.000488478
0.000488473
0.000488444
0.000488451
0.000619677
0.000619672
0.000619635
0.000619649
0.000768286
0.000768281
0.000768235
0.000768263
0.000931967
0.00093196
0.000931904
0.000931953
0.00110723
0.00110722
0.00110715
0.00110723
0.00128963
0.00128962
0.00128954
0.00128964
0.00147412
0.00147412
0.00147403
0.00147415
0.00165617
0.00165617
0.00165607
0.00165621
0.00183276
0.00183277
0.00183265
0.00183281
0.00200094
0.00200095
0.0020008
0.00200097
0.00215798
0.002158
0.00215783
0.00215796
0.00230152
0.00230156
0.00230136
0.00230148
0.00242959
0.00242964
0.00242943
0.00242954
0.00254065
0.00254071
0.00254048
0.0025406
0.00263355
0.00263361
0.00263338
0.00263349
0.00270752
0.0027076
0.00270737
0.00270747
0.00276214
0.00276221
0.00276199
0.00276209
0.00279717
0.00279724
0.00279703
0.00279713
0.00281255
0.0028126
0.00281241
0.00281251
0.00280826
0.00280829
0.00280812
0.00280824
0.00278434
0.00278432
0.00278417
0.00278438
0.0027406
0.00274063
0.00274048
0.0027406
0.00267833
0.00267838
0.00267822
0.00267833
0.00259924
0.00259929
0.00259913
0.00259925
0.00250497
0.00250501
0.00250485
0.00250498
0.00239776
0.00239776
0.00239762
0.00239775
0.00227931
0.00227931
0.00227918
0.0022793
0.0021503
0.0021503
0.00215016
0.00215028
0.0020128
0.00201279
0.00201265
0.00201277
0.00187057
0.00187049
0.00187032
0.00187047
0.00172832
0.0017284
0.00172816
0.0017284
0.00159238
0.00159243
0.0015922
0.00159234
0.00146947
0.00146939
0.00146926
0.00146936
0.00136652
0.00136652
0.00136643
0.00136653
0.00129013
0.00129015
0.00129007
0.00129017
0.00124842
0.00124843
0.00124836
0.00124845
)
;

boundaryField
{
    inlet
    {
        type            cyclic;
    }
    outlet
    {
        type            cyclic;
    }
    fixedWalls-bottom
    {
        type            kqRWallFunction;
        value           nonuniform List<scalar> 4(2.55564e-09 2.55559e-09 2.55542e-09 2.55542e-09);
    }
    fixedWalls-top
    {
        type            symmetry;
    }
    frontAndBack
    {
        type            empty;
    }
}


// ************************************************************************* //
