/*--------------------------------*- C++ -*----------------------------------*\
  =========                 |
  \\      /  F ield         | OpenFOAM: The Open Source CFD Toolbox
   \\    /   O peration     | Website:  https://openfoam.org
    \\  /    A nd           | Version:  10
     \\/     M anipulation  |
\*---------------------------------------------------------------------------*/
FoamFile
{
    format      ascii;
    class       volScalarField;
    location    "1318";
    object      nut;
}
// * * * * * * * * * * * * * * * * * * * * * * * * * * * * * * * * * * * * * //

dimensions      [0 2 -1 0 0 0 0];

internalField   nonuniform List<scalar> 
200
(
2.10969e-13
2.10964e-13
2.10951e-13
2.1095e-13
3.7586e-11
3.75851e-11
3.75827e-11
3.75826e-11
8.19473e-10
8.19455e-10
8.19401e-10
8.19404e-10
6.59804e-09
6.59789e-09
6.59746e-09
6.59747e-09
3.1409e-08
3.14083e-08
3.14062e-08
3.14062e-08
1.08997e-07
1.08994e-07
1.08987e-07
1.08987e-07
3.06782e-07
3.06774e-07
3.06754e-07
3.06754e-07
7.43878e-07
7.43857e-07
7.43809e-07
7.43809e-07
1.61215e-06
1.6121e-06
1.61199e-06
1.61199e-06
3.19746e-06
3.19735e-06
3.19715e-06
3.19715e-06
5.89607e-06
5.89586e-06
5.89548e-06
5.8955e-06
1.02186e-05
1.02182e-05
1.02176e-05
1.02176e-05
1.67735e-05
1.67729e-05
1.67718e-05
1.6772e-05
2.62233e-05
2.62224e-05
2.62208e-05
2.6221e-05
3.92134e-05
3.92122e-05
3.92097e-05
3.92103e-05
5.62808e-05
5.62793e-05
5.62758e-05
5.62772e-05
7.77614e-05
7.77597e-05
7.77548e-05
7.77579e-05
0.000103716
0.000103714
0.000103707
0.000103713
0.000133893
0.000133892
0.000133884
0.000133894
0.000167747
0.000167746
0.000167736
0.000167751
0.000202541
0.00020254
0.000202528
0.000202546
0.000234994
0.000234995
0.00023498
0.000235001
0.000268877
0.000268877
0.000268859
0.000268883
0.00030397
0.000303971
0.000303949
0.000303974
0.000339983
0.000339987
0.00033996
0.000339981
0.000376633
0.000376639
0.000376607
0.000376627
0.00041366
0.000413668
0.000413632
0.000413652
0.000450861
0.000450871
0.000450831
0.000450851
0.000488128
0.00048814
0.000488097
0.000488116
0.000525489
0.000525502
0.000525457
0.000525475
0.000563126
0.000563141
0.000563094
0.000563111
0.000601345
0.00060136
0.000601311
0.000601328
0.000640481
0.000640494
0.000640445
0.000640461
0.000680756
0.000680758
0.000680715
0.000680733
0.000721789
0.000721777
0.000721738
0.000721774
0.000755518
0.000755557
0.000755522
0.000755603
0.000784845
0.0007849
0.00078485
0.000784948
0.000814712
0.000814788
0.000814712
0.000814859
0.000846443
0.000846472
0.000846364
0.000846617
0.000882088
0.000882019
0.00088193
0.00088229
0.000921257
0.000921296
0.000921041
0.000921577
0.000957322
0.000957563
0.000957195
0.000957843
0.000988649
0.000989011
0.00098853
0.00098946
0.00101489
0.00101526
0.00101484
0.00101594
0.00103618
0.00103613
0.00103591
0.00103736
0.00105208
0.00105241
0.00105187
0.00105369
0.00106258
0.001064
0.001063
0.00106523
0.00106871
0.00107044
0.00106931
0.00107197
0.00106969
0.0010715
0.00107019
0.00107331
0.00106872
0.00107094
0.00106956
0.00107267
)
;

boundaryField
{
    inlet
    {
        type            cyclic;
    }
    outlet
    {
        type            cyclic;
    }
    fixedWalls-bottom
    {
        type            nutkWallFunction;
        Cmu             0.09;
        kappa           0.41;
        E               9.8;
        value           uniform 0;
    }
    fixedWalls-top
    {
        type            symmetry;
    }
    frontAndBack
    {
        type            empty;
    }
}


// ************************************************************************* //
