/*--------------------------------*- C++ -*----------------------------------*\
  =========                 |
  \\      /  F ield         | OpenFOAM: The Open Source CFD Toolbox
   \\    /   O peration     | Website:  https://openfoam.org
    \\  /    A nd           | Version:  10
     \\/     M anipulation  |
\*---------------------------------------------------------------------------*/
FoamFile
{
    format      ascii;
    class       volScalarField;
    location    "1318";
    object      omega;
}
// * * * * * * * * * * * * * * * * * * * * * * * * * * * * * * * * * * * * * //

dimensions      [0 0 -1 0 0 0 0];

internalField   nonuniform List<scalar> 
200
(
12113.8
12113.8
12113.8
12113.8
2054.19
2054.2
2054.2
2054.2
681.779
681.78
681.78
681.779
315.589
315.589
315.589
315.588
175.905
175.905
175.905
175.905
110.043
110.043
110.043
110.043
74.433
74.4335
74.4335
74.4336
53.2772
53.2777
53.2777
53.2778
39.8252
39.8257
39.8258
39.8258
30.8272
30.8277
30.8278
30.8278
24.5708
24.5713
24.5714
24.5713
20.087
20.0875
20.0876
20.0875
16.7955
16.7959
16.796
16.7959
14.3316
14.3319
14.332
14.3319
12.4569
12.4572
12.4572
12.4572
11.0104
11.0106
11.0107
11.0107
9.88005
9.88019
9.88022
9.88019
8.98579
8.98588
8.9859
8.98585
8.26946
8.26951
8.26952
8.26944
7.68794
7.68796
7.68796
7.68786
7.20883
7.20884
7.20881
7.20869
6.80753
6.80752
6.80748
6.80733
6.46516
6.46511
6.4651
6.46492
6.16718
6.16711
6.1671
6.16689
5.9023
5.90222
5.9022
5.90198
5.66177
5.66168
5.66167
5.66142
5.43877
5.43868
5.43866
5.4384
5.22799
5.22791
5.22787
5.2276
5.02528
5.02524
5.02515
5.02485
4.82742
4.82727
4.82731
4.82692
4.63175
4.63164
4.63158
4.63128
4.43625
4.43629
4.43607
4.43587
4.2394
4.23941
4.23921
4.23903
4.03976
4.03966
4.03959
4.0394
3.83615
3.83602
3.83597
3.83577
3.62745
3.62729
3.62727
3.62704
3.41256
3.41239
3.4124
3.41212
3.19038
3.19015
3.19025
3.18981
2.95941
2.95935
2.95955
2.95881
2.71827
2.71849
2.71861
2.71765
2.47414
2.47402
2.47457
2.47326
2.24616
2.24559
2.24632
2.24492
2.03591
2.03515
2.036
2.03421
1.84313
1.84238
1.84296
1.84113
1.66798
1.66813
1.66825
1.66615
1.51354
1.51313
1.51368
1.5112
1.38293
1.38101
1.38218
1.37938
1.27866
1.27659
1.27786
1.27478
1.20608
1.20406
1.20547
1.20205
1.16814
1.16573
1.16718
1.16388
)
;

boundaryField
{
    inlet
    {
        type            cyclic;
    }
    outlet
    {
        type            cyclic;
    }
    fixedWalls-bottom
    {
        beta1           0.075;
        blended         0;
        type            omegaWallFunction;
        value           nonuniform List<scalar> 4(12113.8 12113.8 12113.8 12113.8);
    }
    fixedWalls-top
    {
        type            symmetry;
    }
    frontAndBack
    {
        type            empty;
    }
}


// ************************************************************************* //
