/*--------------------------------*- C++ -*----------------------------------*\
  =========                 |
  \\      /  F ield         | OpenFOAM: The Open Source CFD Toolbox
   \\    /   O peration     | Website:  https://openfoam.org
    \\  /    A nd           | Version:  10
     \\/     M anipulation  |
\*---------------------------------------------------------------------------*/
FoamFile
{
    format      ascii;
    class       volScalarField;
    location    "1318";
    object      p;
}
// * * * * * * * * * * * * * * * * * * * * * * * * * * * * * * * * * * * * * //

dimensions      [0 2 -2 0 0 0 0];

internalField   nonuniform List<scalar> 
200
(
7.6697e-11
5.02428e-07
1.513e-07
-3.50099e-07
4.33776e-10
5.01664e-07
1.51102e-07
-3.49341e-07
7.56972e-10
5.00874e-07
1.50853e-07
-3.48549e-07
1.01234e-09
5.00259e-07
1.50624e-07
-3.47953e-07
1.23193e-09
4.99818e-07
1.50378e-07
-3.47517e-07
1.42465e-09
4.9959e-07
1.50151e-07
-3.47314e-07
1.66956e-09
4.99558e-07
1.49877e-07
-3.47289e-07
1.9646e-09
4.9977e-07
1.49571e-07
-3.47527e-07
2.35359e-09
5.00209e-07
1.49166e-07
-3.47974e-07
2.84999e-09
5.00916e-07
1.48667e-07
-3.48709e-07
3.49954e-09
5.01866e-07
1.48006e-07
-3.49671e-07
4.33299e-09
5.03076e-07
1.47174e-07
-3.50911e-07
5.39702e-09
5.04497e-07
1.46105e-07
-3.52346e-07
6.72928e-09
5.06097e-07
1.4478e-07
-3.5398e-07
8.37736e-09
5.07804e-07
1.43135e-07
-3.55704e-07
1.03679e-08
5.09531e-07
1.41155e-07
-3.57467e-07
1.27154e-08
5.11163e-07
1.38816e-07
-3.59118e-07
1.53895e-08
5.12527e-07
1.36157e-07
-3.60522e-07
1.83775e-08
5.13452e-07
1.33182e-07
-3.61469e-07
2.16849e-08
5.13709e-07
1.29894e-07
-3.61768e-07
2.54404e-08
5.13118e-07
1.26154e-07
-3.61201e-07
2.97133e-08
5.11367e-07
1.21905e-07
-3.59496e-07
3.44654e-08
5.08157e-07
1.17171e-07
-3.56312e-07
3.97274e-08
5.03064e-07
1.11935e-07
-3.51266e-07
4.55933e-08
4.95766e-07
1.06087e-07
-3.43993e-07
5.22239e-08
4.85806e-07
9.94842e-08
-3.34081e-07
5.97371e-08
4.72843e-07
9.19856e-08
-3.21144e-07
6.82696e-08
4.56527e-07
8.34785e-08
-3.04878e-07
7.79638e-08
4.36662e-07
7.37926e-08
-2.85038e-07
8.89635e-08
4.12909e-07
6.28168e-08
-2.61337e-07
1.01275e-07
3.85075e-07
5.05114e-08
-2.33528e-07
1.14904e-07
3.53053e-07
3.6909e-08
-2.01558e-07
1.29866e-07
3.16818e-07
2.19563e-08
-1.65346e-07
1.46307e-07
2.76284e-07
5.55024e-09
-1.24863e-07
1.64056e-07
2.31807e-07
-1.21807e-08
-8.04069e-08
1.8106e-07
1.84909e-07
-2.91382e-08
-3.35601e-08
1.971e-07
1.35962e-07
-4.51501e-08
1.53642e-08
2.13449e-07
8.39633e-08
-6.14459e-08
6.73106e-08
2.28522e-07
2.70005e-08
-7.64811e-08
1.24248e-07
2.40339e-07
-3.63458e-08
-8.82357e-08
1.87548e-07
2.50828e-07
-1.03928e-07
-9.86709e-08
2.55111e-07
2.62511e-07
-1.69955e-07
-1.10284e-07
3.21112e-07
2.72476e-07
-2.31428e-07
-1.20184e-07
3.8258e-07
2.75607e-07
-2.88139e-07
-1.23247e-07
4.39289e-07
2.68423e-07
-3.44786e-07
-1.16002e-07
4.95943e-07
2.55891e-07
-3.99161e-07
-1.03418e-07
5.50327e-07
2.45498e-07
-4.36804e-07
-9.29868e-08
5.87977e-07
2.36789e-07
-4.58239e-07
-8.42554e-08
6.09421e-07
2.28982e-07
-4.72463e-07
-7.64537e-08
6.23667e-07
2.23739e-07
-4.79417e-07
-7.12169e-08
6.30651e-07
)
;

boundaryField
{
    inlet
    {
        type            cyclic;
    }
    outlet
    {
        type            cyclic;
    }
    fixedWalls-bottom
    {
        type            zeroGradient;
    }
    fixedWalls-top
    {
        type            symmetry;
    }
    frontAndBack
    {
        type            empty;
    }
}


// ************************************************************************* //
