/*--------------------------------*- C++ -*----------------------------------*\
  =========                 |
  \\      /  F ield         | OpenFOAM: The Open Source CFD Toolbox
   \\    /   O peration     | Website:  https://openfoam.org
    \\  /    A nd           | Version:  10
     \\/     M anipulation  |
\*---------------------------------------------------------------------------*/
FoamFile
{
    format      ascii;
    class       surfaceScalarField;
    location    "1318";
    object      phi;
}
// * * * * * * * * * * * * * * * * * * * * * * * * * * * * * * * * * * * * * //

dimensions      [0 3 -1 0 0 0 0];

internalField   nonuniform List<scalar> 
346
(
0.000272601
-1.12719e-10
0.000272602
-1.42549e-09
0.000272603
-3.98066e-10
1.49041e-09
0.000844081
9.21974e-10
0.000844085
-5.52363e-09
0.000844086
-1.54756e-09
5.64167e-09
0.00145907
2.94567e-09
0.00145908
-1.18503e-08
0.00145908
-3.52036e-09
1.20726e-08
0.00211989
5.5145e-09
0.0021199
-2.03562e-08
0.0021199
-6.20912e-09
2.06008e-08
0.00282893
8.97843e-09
0.00282894
-3.04081e-08
0.00282895
-9.62675e-09
3.07335e-08
0.00358868
1.27988e-08
0.00358869
-4.19038e-08
0.0035887
-1.35548e-08
4.2227e-08
0.00440168
1.72328e-08
0.00440169
-5.40831e-08
0.0044017
-1.79377e-08
5.44713e-08
0.00527053
2.16322e-08
0.00527055
-6.68213e-08
0.00527055
-2.24278e-08
6.71919e-08
0.00619787
2.61214e-08
0.00619788
-7.92831e-08
0.00619789
-2.68641e-08
7.97048e-08
0.00718633
2.99541e-08
0.00718634
-9.13585e-08
0.00718634
-3.07713e-08
9.17534e-08
0.00823849
3.31202e-08
0.0082385
-1.02206e-07
0.00823851
-3.38806e-08
1.02644e-07
0.00935686
3.48098e-08
0.00935687
-1.118e-07
0.00935687
-3.56295e-08
1.12207e-07
0.0105437
3.49301e-08
0.0105438
-1.19389e-07
0.0105438
-3.56949e-08
1.19831e-07
0.0118013
3.27036e-08
0.0118013
-1.25082e-07
0.0118013
-3.35152e-08
1.25492e-07
0.0131313
2.80618e-08
0.0131313
-1.28299e-07
0.0131313
-2.88179e-08
1.28739e-07
0.0145352
2.03565e-08
0.0145352
-1.29339e-07
0.0145352
-2.11475e-08
1.29748e-07
0.0160145
9.61732e-09
0.0160145
-1.27868e-07
0.0160145
-1.03573e-08
1.283e-07
0.01757
-4.69059e-09
0.01757
-1.24422e-07
0.01757
3.92593e-09
1.24825e-07
0.0192026
-2.24845e-08
0.0192026
-1.19014e-07
0.0192026
2.17693e-08
1.19434e-07
0.0209132
-4.41943e-08
0.0209132
-1.12293e-07
0.0209131
4.34643e-08
1.12688e-07
0.0227029
-6.9469e-08
0.0227029
-1.0416e-07
0.0227029
6.87828e-08
1.04565e-07
0.0245739
-9.81856e-08
0.0245739
-9.49639e-08
0.0245739
9.74933e-08
9.53462e-08
0.0265282
-1.29824e-07
0.0265282
-8.48379e-08
0.0265282
1.29173e-07
8.52241e-08
0.0285669
-1.64307e-07
0.0285669
-7.45984e-08
0.0285669
1.63658e-07
7.49658e-08
0.0306911
-2.0095e-07
0.0306911
-6.45183e-08
0.0306911
2.00337e-07
6.48819e-08
0.0329018
-2.39411e-07
0.0329018
-5.48051e-08
0.0329018
2.38808e-07
5.51531e-08
0.0351999
-2.78716e-07
0.0351999
-4.59099e-08
0.0351999
2.78146e-07
4.62486e-08
0.037586
-3.18269e-07
0.037586
-3.80636e-08
0.0375859
3.17715e-07
3.83902e-08
0.0400605
-3.56984e-07
0.0400605
-3.12899e-08
0.0400604
3.56459e-07
3.16015e-08
0.0426235
-3.94324e-07
0.0426235
-2.53543e-08
0.0426235
3.93822e-07
2.56568e-08
0.0452748
-4.29268e-07
0.0452748
-2.02711e-08
0.0452748
4.28791e-07
2.05548e-08
0.0480135
-4.61105e-07
0.0480135
-1.59014e-08
0.0480135
4.60655e-07
1.61787e-08
0.0508381
-4.88082e-07
0.0508381
-1.25125e-08
0.0508381
4.87655e-07
1.27681e-08
0.0537465
-5.08913e-07
0.0537465
-9.80482e-09
0.0537465
5.08515e-07
1.00557e-08
0.0567361
-5.21034e-07
0.0567361
-7.96752e-09
0.056736
5.20657e-07
8.19475e-09
0.0598048
-5.28018e-07
0.0598048
-4.50651e-09
0.0598048
5.27673e-07
4.72955e-09
0.0629511
-5.33311e-07
0.0629511
2.17742e-09
0.0629511
5.32988e-07
-1.9785e-09
0.0661707
-5.34174e-07
0.0661707
1.29277e-08
0.0661707
5.33883e-07
-1.27337e-08
0.0694576
-5.28099e-07
0.0694576
2.55319e-08
0.0694576
5.27831e-07
-2.53632e-08
0.0728039
-5.1867e-07
0.0728038
3.42286e-08
0.0728039
5.18434e-07
-3.40673e-08
0.0762001
-5.03087e-07
0.0762001
3.55319e-08
0.0762001
5.02876e-07
-3.5395e-08
0.0796368
-4.72164e-07
0.0796368
3.66713e-08
0.0796369
4.71986e-07
-3.65453e-08
0.0831042
-4.25908e-07
0.0831042
4.40499e-08
0.0831042
4.25756e-07
-4.39476e-08
0.0865907
-3.68143e-07
0.0865907
6.05762e-08
0.0865907
3.68022e-07
-6.04892e-08
0.0900827
-3.07989e-07
0.0900827
6.87805e-08
0.0900828
3.07896e-07
-6.87154e-08
0.093564
-2.47392e-07
0.093564
5.02484e-08
0.0935641
2.47328e-07
-5.02025e-08
0.0970155
-1.8126e-07
0.0970155
2.84918e-08
0.0970156
1.81225e-07
-2.84676e-08
0.100415
-1.16004e-07
0.100415
1.73212e-08
0.100415
1.15997e-07
-1.73187e-08
0.103736
-5.58377e-08
0.103736
3.96047e-09
0.103736
5.58603e-08
-3.98304e-09
0.106947
0.106947
0.106947
)
;

boundaryField
{
    inlet
    {
        type            cyclic;
        value           nonuniform List<scalar> 
50
(
-0.106947
-0.103736
-0.100415
-0.0970156
-0.0935641
-0.0900828
-0.0865908
-0.0831042
-0.0796369
-0.0762001
-0.0728039
-0.0694576
-0.0661707
-0.0629511
-0.0598048
-0.0567361
-0.0537465
-0.0508381
-0.0480135
-0.0452748
-0.0426235
-0.0400604
-0.0375859
-0.0351999
-0.0329018
-0.0306911
-0.0285669
-0.0265282
-0.0245739
-0.0227029
-0.0209131
-0.0192026
-0.01757
-0.0160145
-0.0145352
-0.0131313
-0.0118013
-0.0105437
-0.00935686
-0.00823849
-0.00718633
-0.00619787
-0.00527054
-0.00440169
-0.00358869
-0.00282894
-0.00211989
-0.00145907
-0.000844082
-0.000272601
)
;
    }
    outlet
    {
        type            cyclic;
        value           nonuniform List<scalar> 
50
(
0.106947
0.103736
0.100415
0.0970156
0.0935641
0.0900828
0.0865908
0.0831042
0.0796369
0.0762001
0.0728039
0.0694576
0.0661707
0.0629511
0.0598048
0.0567361
0.0537465
0.0508381
0.0480135
0.0452748
0.0426235
0.0400604
0.0375859
0.0351999
0.0329018
0.0306911
0.0285669
0.0265282
0.0245739
0.0227029
0.0209131
0.0192026
0.01757
0.0160145
0.0145352
0.0131313
0.0118013
0.0105437
0.00935686
0.00823849
0.00718633
0.00619787
0.00527054
0.00440169
0.00358869
0.00282894
0.00211989
0.00145907
0.000844082
0.000272601
)
;
    }
    fixedWalls-bottom
    {
        type            calculated;
        value           uniform 0;
    }
    fixedWalls-top
    {
        type            symmetry;
        value           uniform 0;
    }
    frontAndBack
    {
        type            empty;
        value           nonuniform List<scalar> 0();
    }
}


// ************************************************************************* //
