/*--------------------------------*- C++ -*----------------------------------*\
  =========                 |
  \\      /  F ield         | OpenFOAM: The Open Source CFD Toolbox
   \\    /   O peration     | Website:  https://openfoam.org
    \\  /    A nd           | Version:  10
     \\/     M anipulation  |
\*---------------------------------------------------------------------------*/
FoamFile
{
    format      ascii;
    class       volSymmTensorField;
    location    "1318";
    object      R;
}
// * * * * * * * * * * * * * * * * * * * * * * * * * * * * * * * * * * * * * //

dimensions      [0 2 -2 0 0 0 0];

internalField   nonuniform List<symmTensor> 
200
(
(1.70376e-09 -6.7447e-13 -0 1.70376e-09 -0 1.70376e-09)
(1.70372e-09 -6.74457e-13 -0 1.70372e-09 -0 1.70372e-09)
(1.70361e-09 -6.74418e-13 -0 1.70361e-09 -0 1.70361e-09)
(1.70361e-09 -6.74415e-13 -0 1.70361e-09 -0 1.70361e-09)
(5.14726e-08 -1.19036e-10 -0 5.14726e-08 -0 5.14726e-08)
(5.14715e-08 -1.19033e-10 -0 5.14715e-08 -0 5.14715e-08)
(5.14681e-08 -1.19026e-10 -0 5.14681e-08 -0 5.14681e-08)
(5.14681e-08 -1.19026e-10 -0 5.14681e-08 -0 5.14681e-08)
(3.72467e-07 -2.56999e-09 -0 3.72467e-07 -0 3.72467e-07)
(3.72459e-07 -2.56994e-09 -0 3.72459e-07 -0 3.72459e-07)
(3.72434e-07 -2.56979e-09 -0 3.72434e-07 -0 3.72434e-07)
(3.72435e-07 -2.56979e-09 -0 3.72435e-07 -0 3.72435e-07)
(1.38818e-06 -2.04828e-08 -0 1.38818e-06 -0 1.38818e-06)
(1.38815e-06 -2.04823e-08 -0 1.38815e-06 -0 1.38815e-06)
(1.38806e-06 -2.04811e-08 -0 1.38806e-06 -0 1.38806e-06)
(1.38806e-06 -2.04811e-08 -0 1.38806e-06 -0 1.38806e-06)
(3.68332e-06 -9.64772e-08 -0 3.68332e-06 -0 3.68332e-06)
(3.68325e-06 -9.64751e-08 -0 3.68325e-06 -0 3.68325e-06)
(3.68301e-06 -9.64692e-08 -0 3.68301e-06 -0 3.68301e-06)
(3.68301e-06 -9.6469e-08 -0 3.68301e-06 -0 3.68301e-06)
(7.99624e-06 -3.31123e-07 -0 7.99624e-06 -0 7.99624e-06)
(7.99608e-06 -3.31115e-07 -0 7.99608e-06 -0 7.99608e-06)
(7.99556e-06 -3.31094e-07 -0 7.99556e-06 -0 7.99556e-06)
(7.99556e-06 -3.31093e-07 -0 7.99556e-06 -0 7.99556e-06)
(1.52231e-05 -9.21283e-07 -0 1.52231e-05 -0 1.52231e-05)
(1.52228e-05 -9.21259e-07 -0 1.52228e-05 -0 1.52228e-05)
(1.52219e-05 -9.21202e-07 -0 1.52219e-05 -0 1.52219e-05)
(1.52219e-05 -9.212e-07 -0 1.52218e-05 -0 1.52219e-05)
(2.64212e-05 -2.20706e-06 -0 2.64212e-05 -0 2.64212e-05)
(2.64207e-05 -2.207e-06 -0 2.64207e-05 -0 2.64207e-05)
(2.6419e-05 -2.20686e-06 -0 2.6419e-05 -0 2.6419e-05)
(2.6419e-05 -2.20686e-06 -0 2.6419e-05 -0 2.6419e-05)
(4.28027e-05 -4.72268e-06 -0 4.28027e-05 -0 4.28027e-05)
(4.28019e-05 -4.72253e-06 -0 4.28019e-05 -0 4.28019e-05)
(4.27992e-05 -4.72222e-06 -0 4.27992e-05 -0 4.27992e-05)
(4.27992e-05 -4.72222e-06 -0 4.27992e-05 -0 4.27992e-05)
(6.57126e-05 -9.24127e-06 -0 6.57126e-05 -0 6.57126e-05)
(6.57114e-05 -9.24095e-06 -0 6.57114e-05 -0 6.57114e-05)
(6.57074e-05 -9.24034e-06 -0 6.57074e-05 -0 6.57074e-05)
(6.57075e-05 -9.24035e-06 -0 6.57075e-05 -0 6.57075e-05)
(9.65808e-05 -1.67972e-05 -0 9.65807e-05 -0 9.65807e-05)
(9.65792e-05 -1.67965e-05 -0 9.65792e-05 -0 9.65792e-05)
(9.65733e-05 -1.67954e-05 -0 9.65733e-05 -0 9.65733e-05)
(9.65735e-05 -1.67954e-05 -0 9.65735e-05 -0 9.65735e-05)
(0.000136841 -2.86639e-05 -0 0.000136841 -0 0.000136841)
(0.000136839 -2.86627e-05 -0 0.000136839 -0 0.000136839)
(0.000136831 -2.86608e-05 -0 0.000136831 -0 0.000136831)
(0.000136831 -2.8661e-05 -0 0.000136831 -0 0.000136831)
(0.000187813 -4.62664e-05 -0 0.000187813 -0 0.000187813)
(0.000187811 -4.62646e-05 -0 0.000187811 -0 0.000187811)
(0.000187799 -4.62615e-05 -0 0.000187799 -0 0.000187799)
(0.0001878 -4.62618e-05 -0 0.0001878 -0 0.0001878)
(0.000250547 -7.10161e-05 -0 0.000250548 -0 0.000250548)
(0.000250545 -7.10135e-05 -0 0.000250545 -0 0.000250545)
(0.00025053 -7.10088e-05 -0 0.00025053 -0 0.00025053)
(0.000250532 -7.10094e-05 -0 0.000250532 -0 0.000250532)
(0.000325652 -0.000104079 -0 0.000325652 -0 0.000325652)
(0.000325649 -0.000104075 -0 0.000325649 -0 0.000325649)
(0.00032563 -0.000104068 -0 0.00032563 -0 0.00032563)
(0.000325634 -0.00010407 -0 0.000325634 -0 0.000325634)
(0.000413118 -0.000146116 -0 0.000413118 -0 0.000413118)
(0.000413114 -0.000146112 -0 0.000413114 -0 0.000413114)
(0.00041309 -0.000146102 -0 0.00041309 -0 0.00041309)
(0.000413099 -0.000146105 -0 0.000413099 -0 0.000413099)
(0.000512191 -0.000197063 -0 0.000512191 -0 0.000512191)
(0.000512187 -0.000197058 -0 0.000512187 -0 0.000512187)
(0.000512157 -0.000197045 -0 0.000512157 -0 0.000512157)
(0.000512175 -0.000197053 -0 0.000512176 -0 0.000512175)
(0.000621311 -0.000256016 -0 0.000621311 -0 0.000621311)
(0.000621307 -0.000256011 -0 0.000621307 -0 0.000621307)
(0.000621269 -0.000255995 -0 0.000621269 -0 0.000621269)
(0.000621302 -0.000256009 -0 0.000621302 -0 0.000621302)
(0.000738151 -0.000321265 -0 0.000738151 -0 0.000738151)
(0.000738147 -0.000321261 -0 0.000738146 -0 0.000738147)
(0.000738102 -0.00032124 -0 0.000738101 -0 0.000738102)
(0.000738151 -0.000321263 -0 0.000738151 -0 0.000738151)
(0.000859751 -0.000390528 -0 0.000859752 -0 0.000859751)
(0.000859748 -0.000390526 -0 0.000859748 -0 0.000859748)
(0.000859696 -0.000390502 -0 0.000859695 -0 0.000859696)
(0.000859762 -0.000390536 -0 0.000859763 -0 0.000859762)
(0.000982748 -0.000456978 -0 0.000982749 -0 0.000982748)
(0.000982748 -0.000456978 -0 0.000982748 -0 0.000982748)
(0.000982688 -0.00045695 -0 0.000982687 -0 0.000982688)
(0.000982769 -0.000456988 -0 0.00098277 -0 0.00098277)
(0.00110411 -0.000513413 -0 0.00110411 -0 0.00110411)
(0.00110411 -0.000513413 -0 0.00110411 -0 0.00110411)
(0.00110404 -0.00051338 -0 0.00110404 -0 0.00110404)
(0.00110414 -0.000513425 -0 0.00110414 -0 0.00110414)
(0.00122184 -0.000568157 -0 0.00122184 -0 0.00122184)
(0.00122185 -0.000568159 -0 0.00122185 -0 0.00122185)
(0.00122176 -0.00056812 -0 0.00122176 -0 0.00122176)
(0.00122187 -0.00056817 -0 0.00122187 -0 0.00122187)
(0.00133396 -0.000620291 -0 0.00133396 -0 0.00133396)
(0.00133397 -0.000620295 -0 0.00133397 -0 0.00133397)
(0.00133387 -0.000620249 -0 0.00133387 -0 0.00133387)
(0.00133398 -0.0006203 -0 0.00133398 -0 0.00133398)
(0.00143865 -0.000668974 -0 0.00143865 -0 0.00143865)
(0.00143867 -0.000668983 -0 0.00143867 -0 0.00143867)
(0.00143855 -0.000668928 -0 0.00143855 -0 0.00143855)
(0.00143864 -0.000668969 -0 0.00143864 -0 0.00143864)
(0.00153434 -0.000713478 -0 0.00153435 -0 0.00153434)
(0.00153437 -0.000713491 -0 0.00153437 -0 0.00153437)
(0.00153424 -0.00071343 -0 0.00153424 -0 0.00153424)
(0.00153432 -0.000713467 -0 0.00153432 -0 0.00153432)
(0.00161973 -0.000753212 -0 0.00161973 -0 0.00161973)
(0.00161976 -0.000753228 -0 0.00161976 -0 0.00161976)
(0.00161962 -0.000753162 -0 0.00161962 -0 0.00161962)
(0.0016197 -0.000753198 -0 0.0016197 -0 0.0016197)
(0.00169376 -0.000787752 -0 0.00169377 -0 0.00169376)
(0.00169381 -0.000787771 -0 0.0016938 -0 0.00169381)
(0.00169366 -0.000787701 -0 0.00169365 -0 0.00169366)
(0.00169373 -0.000787736 -0 0.00169373 -0 0.00169373)
(0.00175569 -0.000816875 -0 0.0017557 -0 0.0017557)
(0.00175574 -0.000816896 -0 0.00175574 -0 0.00175574)
(0.00175559 -0.000816824 -0 0.00175559 -0 0.00175559)
(0.00175566 -0.000816858 -0 0.00175566 -0 0.00175566)
(0.00180501 -0.000840578 -0 0.00180502 -0 0.00180502)
(0.00180507 -0.0008406 -0 0.00180507 -0 0.00180507)
(0.00180491 -0.000840528 -0 0.00180491 -0 0.00180491)
(0.00180498 -0.00084056 -0 0.00180498 -0 0.00180498)
(0.00184142 -0.000859046 -0 0.00184143 -0 0.00184143)
(0.00184148 -0.000859068 -0 0.00184148 -0 0.00184148)
(0.00184133 -0.000858997 -0 0.00184132 -0 0.00184133)
(0.00184139 -0.000859027 -0 0.00184139 -0 0.00184139)
(0.00186478 -0.000872556 -0 0.00186478 -0 0.00186478)
(0.00186483 -0.000872578 -0 0.00186483 -0 0.00186483)
(0.00186469 -0.000872508 -0 0.00186468 -0 0.00186469)
(0.00186475 -0.000872536 -0 0.00186475 -0 0.00186475)
(0.00187503 -0.000881331 -0 0.00187503 -0 0.00187503)
(0.00187507 -0.000881349 -0 0.00187507 -0 0.00187507)
(0.00187494 -0.000881283 -0 0.00187494 -0 0.00187494)
(0.00187501 -0.000881311 -0 0.00187501 -0 0.00187501)
(0.00187218 -0.000885387 -0 0.00187218 -0 0.00187218)
(0.00187219 -0.000885391 -0 0.00187219 -0 0.00187219)
(0.00187208 -0.000885335 -0 0.00187208 -0 0.00187208)
(0.00187216 -0.000885367 -0 0.00187216 -0 0.00187216)
(0.00185623 -0.000884418 -0 0.00185623 -0 0.00185623)
(0.00185622 -0.000884405 -0 0.00185621 -0 0.00185621)
(0.00185612 -0.000884355 -0 0.00185611 -0 0.00185612)
(0.00185625 -0.00088441 -0 0.00185625 -0 0.00185625)
(0.00182707 -0.000869663 -0 0.00182707 -0 0.00182707)
(0.00182708 -0.00086971 -0 0.00182708 -0 0.00182708)
(0.00182699 -0.000869665 -0 0.00182699 -0 0.00182699)
(0.00182707 -0.000869765 -0 0.00182707 -0 0.00182707)
(0.00178555 -0.000845616 -0 0.00178555 -0 0.00178555)
(0.00178559 -0.000845674 -0 0.00178559 -0 0.00178559)
(0.00178548 -0.000845618 -0 0.00178548 -0 0.00178548)
(0.00178555 -0.000845727 -0 0.00178556 -0 0.00178555)
(0.00173283 -0.000817316 -0 0.00173283 -0 0.00173283)
(0.00173286 -0.000817388 -0 0.00173286 -0 0.00173286)
(0.00173276 -0.000817313 -0 0.00173276 -0 0.00173276)
(0.00173283 -0.000817466 -0 0.00173283 -0 0.00173283)
(0.00166998 -0.000785292 -0 0.00166998 -0 0.00166998)
(0.00167001 -0.000785321 -0 0.00167 -0 0.00167)
(0.0016699 -0.000785221 -0 0.0016699 -0 0.0016699)
(0.00166999 -0.000785459 -0 0.00166999 -0 0.00166999)
(0.0015985 -0.000750592 -0 0.0015985 -0 0.0015985)
(0.0015985 -0.000750542 -0 0.0015985 -0 0.0015985)
(0.00159842 -0.000750465 -0 0.00159842 -0 0.00159842)
(0.0015985 -0.000750776 -0 0.0015985 -0 0.0015985)
(0.00151954 -0.000712219 -0 0.00151954 -0 0.00151954)
(0.00151954 -0.000712252 -0 0.00151954 -0 0.00151954)
(0.00151945 -0.000712057 -0 0.00151945 -0 0.00151945)
(0.00151953 -0.000712478 -0 0.00151953 -0 0.00151953)
(0.00143353 -0.000665315 -0 0.00143353 -0 0.00143353)
(0.00143353 -0.000665473 -0 0.00143353 -0 0.00143353)
(0.00143344 -0.000665225 -0 0.00143345 -0 0.00143344)
(0.00143352 -0.000665682 -0 0.00143352 -0 0.00143352)
(0.00134187 -0.000609815 -0 0.00134187 -0 0.00134187)
(0.00134186 -0.000610024 -0 0.00134186 -0 0.00134186)
(0.00134176 -0.000609734 -0 0.00134177 -0 0.00134177)
(0.00134185 -0.000610312 -0 0.00134185 -0 0.00134185)
(0.00124705 -0.000546405 -0 0.00124704 -0 0.00124705)
(0.00124699 -0.000546602 -0 0.00124699 -0 0.00124699)
(0.00124688 -0.000546382 -0 0.00124689 -0 0.00124688)
(0.00124698 -0.000546973 -0 0.00124698 -0 0.00124698)
(0.00115222 -0.000475993 -0 0.00115221 -0 0.00115222)
(0.00115227 -0.000475989 -0 0.00115227 -0 0.00115227)
(0.0011521 -0.000475888 -0 0.00115211 -0 0.0011521)
(0.00115226 -0.000476551 -0 0.00115226 -0 0.00115226)
(0.00106159 -0.00039921 -0 0.00106158 -0 0.00106158)
(0.00106162 -0.000399342 -0 0.00106162 -0 0.00106162)
(0.00106146 -0.000399145 -0 0.00106147 -0 0.00106147)
(0.00106156 -0.000399827 -0 0.00106156 -0 0.00106156)
(0.000979648 -0.000316917 -0 0.000979639 -0 0.000979643)
(0.000979589 -0.000317326 -0 0.000979592 -0 0.000979591)
(0.000979501 -0.000317041 -0 0.00097951 -0 0.000979505)
(0.000979575 -0.000317694 -0 0.000979572 -0 0.000979573)
(0.000911015 -0.000230237 -0 0.000911007 -0 0.000911011)
(0.000911013 -0.000230599 -0 0.000911016 -0 0.000911014)
(0.000910948 -0.000230363 -0 0.000910956 -0 0.000910952)
(0.000911019 -0.000230922 -0 0.000911017 -0 0.000911018)
(0.000860093 -0.000139729 -0 0.000860086 -0 0.00086009)
(0.000860098 -0.000139957 -0 0.0008601 -0 0.0008601)
(0.000860045 -0.00013979 -0 0.000860053 -0 0.000860049)
(0.000860115 -0.000140187 -0 0.000860114 -0 0.000860114)
(0.000832282 -4.68497e-05 -0 0.000832275 -0 0.000832278)
(0.000832286 -4.69412e-05 -0 0.000832287 -0 0.000832286)
(0.000832238 -4.68814e-05 -0 0.000832245 -0 0.000832241)
(0.000832303 -4.70141e-05 -0 0.000832302 -0 0.000832302)
)
;

boundaryField
{
    inlet
    {
        type            cyclic;
    }
    outlet
    {
        type            cyclic;
    }
    fixedWalls-bottom
    {
        type            kqRWallFunction;
        value           nonuniform List<symmTensor> 4((1.70376e-09 -0 -0 1.70376e-09 -0 1.70376e-09) (1.70372e-09 -0 -0 1.70372e-09 -0 1.70372e-09) (1.70361e-09 -0 -0 1.70361e-09 -0 1.70361e-09) (1.70361e-09 -0 -0 1.70361e-09 -0 1.70361e-09));
    }
    fixedWalls-top
    {
        type            symmetry;
    }
    frontAndBack
    {
        type            empty;
    }
}


// ************************************************************************* //
