/*--------------------------------*- C++ -*----------------------------------*\
  =========                 |
  \\      /  F ield         | OpenFOAM: The Open Source CFD Toolbox
   \\    /   O peration     | Website:  https://openfoam.org
    \\  /    A nd           | Version:  10
     \\/     M anipulation  |
\*---------------------------------------------------------------------------*/
FoamFile
{
    format      ascii;
    class       volVectorField;
    location    "1318";
    object      U;
}
// * * * * * * * * * * * * * * * * * * * * * * * * * * * * * * * * * * * * * //

dimensions      [0 1 -1 0 0 0 0];

internalField   nonuniform List<vector> 
200
(
(0.0147947 -3.65545e-10 0)
(0.0147948 -3.21599e-10 0)
(0.0147949 -3.49023e-11 0)
(0.0147948 3.39881e-10 0)
(0.0445325 3.30585e-10 0)
(0.0445326 -2.94642e-09 0)
(0.0445329 -8.41439e-10 0)
(0.0445327 3.05284e-09 0)
(0.0748311 1.69752e-09 0)
(0.0748313 -8.19062e-09 0)
(0.0748318 -2.35482e-09 0)
(0.0748315 8.36015e-09 0)
(0.10569 4.02556e-09 0)
(0.10569 -1.56856e-08 0)
(0.10569 -4.69361e-09 0)
(0.10569 1.5921e-08 0)
(0.137106 7.09115e-09 0)
(0.137106 -2.50792e-08 0)
(0.137107 -7.77209e-09 0)
(0.137106 2.53654e-08 0)
(0.169075 1.07856e-08 0)
(0.169076 -3.59706e-08 0)
(0.169076 -1.1485e-08 0)
(0.169076 3.62973e-08 0)
(0.201594 1.49646e-08 0)
(0.201594 -4.79315e-08 0)
(0.201595 -1.56931e-08 0)
(0.201594 4.82879e-08 0)
(0.234653 1.9446e-08 0)
(0.234653 -6.05071e-08 0)
(0.234654 -2.01947e-08 0)
(0.234654 6.08877e-08 0)
(0.268242 2.39651e-08 0)
(0.268242 -7.32258e-08 0)
(0.268243 -2.47358e-08 0)
(0.268243 7.36219e-08 0)
(0.302346 2.82177e-08 0)
(0.302347 -8.55995e-08 0)
(0.302347 -2.89966e-08 0)
(0.302347 8.60085e-08 0)
(0.336945 3.18134e-08 0)
(0.336945 -9.71604e-08 0)
(0.336946 -3.2603e-08 0)
(0.336945 9.75767e-08 0)
(0.37201 3.43452e-08 0)
(0.37201 -1.07456e-07 0)
(0.37201 -3.51337e-08 0)
(0.37201 1.0788e-07 0)
(0.407504 3.53462e-08 0)
(0.407504 -1.16109e-07 0)
(0.407505 -3.61392e-08 0)
(0.407504 1.16534e-07 0)
(0.443383 3.43843e-08 0)
(0.443383 -1.2278e-07 0)
(0.443384 -3.51712e-08 0)
(0.443383 1.23207e-07 0)
(0.47959 3.10241e-08 0)
(0.479589 -1.27246e-07 0)
(0.47959 -3.18087e-08 0)
(0.479589 1.27671e-07 0)
(0.516058 2.49178e-08 0)
(0.516058 -1.29347e-07 0)
(0.516058 -2.56904e-08 0)
(0.516058 1.29773e-07 0)
(0.552716 1.57388e-08 0)
(0.552716 -1.29085e-07 0)
(0.552716 -1.65051e-08 0)
(0.552715 1.29505e-07 0)
(0.589486 3.2293e-09 0)
(0.589486 -1.26561e-07 0)
(0.589486 -3.98157e-09 0)
(0.589485 1.26978e-07 0)
(0.62629 -1.28542e-08 0)
(0.62629 -1.22051e-07 0)
(0.62629 1.21128e-08 0)
(0.626289 1.22462e-07 0)
(0.663053 -3.27061e-08 0)
(0.663053 -1.15877e-07 0)
(0.663053 3.19822e-08 0)
(0.663052 1.16284e-07 0)
(0.699718 -5.62061e-08 0)
(0.699718 -1.08291e-07 0)
(0.699718 5.54955e-08 0)
(0.699716 1.08689e-07 0)
(0.736257 -8.32203e-08 0)
(0.736257 -9.95567e-08 0)
(0.736256 8.25284e-08 0)
(0.736255 9.99485e-08 0)
(0.772637 -1.13461e-07 0)
(0.772637 -8.98501e-08 0)
(0.772636 1.12786e-07 0)
(0.772635 9.02317e-08 0)
(0.808805 -1.4658e-07 0)
(0.808805 -7.97349e-08 0)
(0.808805 1.45927e-07 0)
(0.808803 8.01089e-08 0)
(0.844708 -1.82292e-07 0)
(0.844708 -6.92935e-08 0)
(0.844708 1.81658e-07 0)
(0.844706 6.96556e-08 0)
(0.880293 -2.20057e-07 0)
(0.880293 -5.93044e-08 0)
(0.880292 2.19447e-07 0)
(0.880291 5.96575e-08 0)
(0.915507 -2.59176e-07 0)
(0.915507 -4.99725e-08 0)
(0.915506 2.58589e-07 0)
(0.915505 5.03137e-08 0)
(0.950296 -2.98846e-07 0)
(0.950296 -4.16354e-08 0)
(0.950295 2.98285e-07 0)
(0.950294 4.19672e-08 0)
(0.984605 -3.38214e-07 0)
(0.984606 -3.43883e-08 0)
(0.984605 3.37678e-07 0)
(0.984604 3.47077e-08 0)
(1.01838 -3.76453e-07 0)
(1.01838 -2.81173e-08 0)
(1.01838 3.75944e-07 0)
(1.01838 2.84262e-08 0)
(1.05155 -4.12794e-07 0)
(1.05155 -2.26793e-08 0)
(1.05155 4.1231e-07 0)
(1.05155 2.29751e-08 0)
(1.08405 -4.46372e-07 0)
(1.08405 -1.79791e-08 0)
(1.08405 4.45914e-07 0)
(1.08405 1.82628e-08 0)
(1.1158 -4.76103e-07 0)
(1.1158 -1.4132e-08 0)
(1.1158 4.7567e-07 0)
(1.1158 1.44021e-08 0)
(1.14673 -5.00267e-07 0)
(1.14673 -1.12509e-08 0)
(1.14673 4.9986e-07 0)
(1.14673 1.1508e-08 0)
(1.17675 -5.15493e-07 0)
(1.17675 -9.52476e-09 0)
(1.17675 5.15111e-07 0)
(1.17675 9.76909e-09 0)
(1.2058 -5.26288e-07 0)
(1.2058 -6.05681e-09 0)
(1.2058 5.25933e-07 0)
(1.2058 6.28661e-09 0)
(1.23383 -5.30856e-07 0)
(1.23383 -1.69088e-09 0)
(1.23383 5.30525e-07 0)
(1.23383 1.90815e-09 0)
(1.26075 -5.3353e-07 0)
(1.26075 7.80221e-09 0)
(1.26075 5.33226e-07 0)
(1.26075 -7.6018e-09 0)
(1.28646 -5.32105e-07 0)
(1.28646 1.90379e-08 0)
(1.28646 5.31826e-07 0)
(1.28646 -1.88508e-08 0)
(1.31082 -5.28281e-07 0)
(1.31082 2.92784e-08 0)
(1.31082 5.28032e-07 0)
(1.31082 -2.9111e-08 0)
(1.3337 -5.13553e-07 0)
(1.3337 3.2618e-08 0)
(1.3337 5.1333e-07 0)
(1.3337 -3.24632e-08 0)
(1.35497 -4.88073e-07 0)
(1.35497 3.50545e-08 0)
(1.35497 4.87882e-07 0)
(1.35497 -3.49211e-08 0)
(1.37452 -4.49198e-07 0)
(1.37452 3.8408e-08 0)
(1.37452 4.49033e-07 0)
(1.37452 -3.8291e-08 0)
(1.39224 -3.97603e-07 0)
(1.39224 5.6023e-08 0)
(1.39224 3.97468e-07 0)
(1.39224 -5.59286e-08 0)
(1.40798 -3.4457e-07 0)
(1.40798 6.27117e-08 0)
(1.40798 3.44463e-07 0)
(1.40798 -6.26364e-08 0)
(1.4216 -2.80688e-07 0)
(1.4216 5.77011e-08 0)
(1.4216 2.80605e-07 0)
(1.4216 -5.76487e-08 0)
(1.43292 -2.12754e-07 0)
(1.43292 4.44602e-08 0)
(1.43292 2.12703e-07 0)
(1.43292 -4.44281e-08 0)
(1.44176 -1.47573e-07 0)
(1.44176 2.38366e-08 0)
(1.44176 1.47553e-07 0)
(1.44176 -2.38311e-08 0)
(1.44789 -8.48277e-08 0)
(1.44789 9.26136e-09 0)
(1.44789 8.48186e-08 0)
(1.44789 -9.2765e-09 0)
(1.45107 -2.67578e-08 0)
(1.45107 3.96737e-09 0)
(1.45107 2.67711e-08 0)
(1.45107 -3.99414e-09 0)
)
;

boundaryField
{
    inlet
    {
        type            cyclic;
    }
    outlet
    {
        type            cyclic;
    }
    fixedWalls-bottom
    {
        type            noSlip;
    }
    fixedWalls-top
    {
        type            symmetry;
    }
    frontAndBack
    {
        type            empty;
    }
}


// ************************************************************************* //
