/*--------------------------------*- C++ -*----------------------------------*\
  =========                 |
  \\      /  F ield         | OpenFOAM: The Open Source CFD Toolbox
   \\    /   O peration     | Website:  https://openfoam.org
    \\  /    A nd           | Version:  10
     \\/     M anipulation  |
\*---------------------------------------------------------------------------*/
FoamFile
{
    format      ascii;
    class       volScalarField;
    location    "2430";
    object      k;
}
// * * * * * * * * * * * * * * * * * * * * * * * * * * * * * * * * * * * * * //

dimensions      [0 2 -2 0 0 0 0];

internalField   nonuniform List<scalar> 
400
(
1.31503e-10
1.31389e-10
1.313e-10
1.31544e-10
3.94543e-09
3.94202e-09
3.93936e-09
3.94668e-09
2.79405e-08
2.79163e-08
2.78975e-08
2.79493e-08
1.01576e-07
1.01488e-07
1.0142e-07
1.01609e-07
2.62832e-07
2.62604e-07
2.62427e-07
2.62916e-07
5.56702e-07
5.56219e-07
5.55845e-07
5.56881e-07
1.03499e-06
1.03409e-06
1.03339e-06
1.03532e-06
1.75664e-06
1.7551e-06
1.75392e-06
1.75721e-06
2.78844e-06
2.78595e-06
2.78409e-06
2.78935e-06
4.2059e-06
4.20207e-06
4.19926e-06
4.20726e-06
6.09422e-06
6.08848e-06
6.08443e-06
6.09615e-06
8.54905e-06
8.54066e-06
8.535e-06
8.55166e-06
1.16769e-05
1.16648e-05
1.16572e-05
1.16803e-05
1.55947e-05
1.55777e-05
1.55675e-05
1.5599e-05
2.0429e-05
2.04053e-05
2.03922e-05
2.04342e-05
2.63136e-05
2.62811e-05
2.62646e-05
2.632e-05
3.33866e-05
3.33427e-05
3.33223e-05
3.33943e-05
4.17864e-05
4.17281e-05
4.17033e-05
4.1796e-05
5.16468e-05
5.15708e-05
5.15415e-05
5.16593e-05
6.30925e-05
6.29951e-05
6.29612e-05
6.31093e-05
7.62332e-05
7.61103e-05
7.60721e-05
7.62564e-05
9.1159e-05
9.1006e-05
9.09642e-05
9.1191e-05
0.000107935
0.000107748
0.000107703
0.000107979
0.0001266
0.000126372
0.000126326
0.000126659
0.000147159
0.000146885
0.00014684
0.000147237
0.000169585
0.00016926
0.000169217
0.000169685
0.000193817
0.000193434
0.000193396
0.000193943
0.000219759
0.000219314
0.000219281
0.000219913
0.000247283
0.000246769
0.000246744
0.000247467
0.000276225
0.00027564
0.000275623
0.000276443
0.000306398
0.000305735
0.000305728
0.00030665
0.000337583
0.00033684
0.000336844
0.000337871
0.000369543
0.000368717
0.000368732
0.000369868
0.000402022
0.000401112
0.000401136
0.000402383
0.00043475
0.000433755
0.000433788
0.000435148
0.000467449
0.00046637
0.00046641
0.000467883
0.00049984
0.000498678
0.000498724
0.000500309
0.000531642
0.000530399
0.000530449
0.000532144
0.000562582
0.000561258
0.000561313
0.000563116
0.000592394
0.000590993
0.000591051
0.000592959
0.000620827
0.000619351
0.000619411
0.000621423
0.000647646
0.000646096
0.00064616
0.000648272
0.000672631
0.000671008
0.000671077
0.000673288
0.000695581
0.000693885
0.000693965
0.000696271
0.000716316
0.000714545
0.000714643
0.00071704
0.000734674
0.000732825
0.000732953
0.000735435
0.000750513
0.000748587
0.000748759
0.000751314
0.000763715
0.000761713
0.000761946
0.000764557
0.000774184
0.000772119
0.000772421
0.000775065
0.000781846
0.00077975
0.00078011
0.000782764
0.000786653
0.000784532
0.000784944
0.000787606
0.000788577
0.000786427
0.000786889
0.000789564
0.000787612
0.000785429
0.000785936
0.00078863
0.000783772
0.000781555
0.000782101
0.000784816
0.000777092
0.000774843
0.000775423
0.000778155
0.000767626
0.000765351
0.000765957
0.000768699
0.000755447
0.000753155
0.00075378
0.000756523
0.000740648
0.00073835
0.000738985
0.000741719
0.000723339
0.00072105
0.000721682
0.000724396
0.00070365
0.000701384
0.000702002
0.000704685
0.00068173
0.000679502
0.000680091
0.000682735
0.000657744
0.000655569
0.000656119
0.000658713
0.000631876
0.00062977
0.000630271
0.000632803
0.000604329
0.000602303
0.000602749
0.000605209
0.00057532
0.000573386
0.000573771
0.000576148
0.00054508
0.000543248
0.00054357
0.000545853
0.000513855
0.000512134
0.000512393
0.000514572
0.000481904
0.000480299
0.000480498
0.000482562
0.000449491
0.000448009
0.000448148
0.000450091
0.000416891
0.000415534
0.000415614
0.000417432
0.000384379
0.000383149
0.000383165
0.000384862
0.000352231
0.00035113
0.00035107
0.000352662
0.000320712
0.000319732
0.000319613
0.000321098
0.000290076
0.00028921
0.000289068
0.000290425
0.000260555
0.000259818
0.000259685
0.000260882
0.000232354
0.0002318
0.000231686
0.000232682
0.000205655
0.000205367
0.00020525
0.00020601
0.000180642
0.000180547
0.000180445
0.000181036
0.000157462
0.000157453
0.000157389
0.00015786
0.000136186
0.000136199
0.00013616
0.000136551
0.00011684
0.000116841
0.000116815
0.000117152
9.94028e-05
9.93956e-05
9.93721e-05
9.96723e-05
8.38338e-05
8.38423e-05
8.38191e-05
8.40894e-05
7.00885e-05
7.01336e-05
7.01083e-05
7.03431e-05
5.812e-05
5.81716e-05
5.81519e-05
5.83493e-05
4.78035e-05
4.78499e-05
4.78361e-05
4.79981e-05
3.90012e-05
3.90395e-05
3.903e-05
3.91605e-05
3.15681e-05
3.15986e-05
3.15919e-05
3.16954e-05
2.53562e-05
2.53802e-05
2.53754e-05
2.54564e-05
2.02191e-05
2.02377e-05
2.02342e-05
2.0297e-05
1.60156e-05
1.603e-05
1.60274e-05
1.60757e-05
1.26131e-05
1.26242e-05
1.26222e-05
1.26592e-05
9.89044e-06
9.89895e-06
9.89745e-06
9.92557e-06
7.73913e-06
7.74564e-06
7.74448e-06
7.76588e-06
6.06471e-06
6.06963e-06
6.06872e-06
6.08508e-06
4.78707e-06
4.79063e-06
4.7899e-06
4.80258e-06
3.84054e-06
3.8427e-06
3.84212e-06
3.85226e-06
3.1738e-06
3.17399e-06
3.17365e-06
3.18232e-06
2.74983e-06
2.74634e-06
2.74676e-06
2.75514e-06
2.54387e-06
2.53631e-06
2.53798e-06
2.54696e-06
)
;

boundaryField
{
    inlet
    {
        type            cyclic;
    }
    outlet
    {
        type            cyclic;
    }
    fixedWalls-bottom
    {
        type            kqRWallFunction;
        value           nonuniform List<scalar> 4(1.31503e-10 1.31389e-10 1.313e-10 1.31544e-10);
    }
    fixedWalls-top
    {
        type            symmetry;
    }
    frontAndBack
    {
        type            empty;
    }
}


// ************************************************************************* //
