/*--------------------------------*- C++ -*----------------------------------*\
  =========                 |
  \\      /  F ield         | OpenFOAM: The Open Source CFD Toolbox
   \\    /   O peration     | Website:  https://openfoam.org
    \\  /    A nd           | Version:  10
     \\/     M anipulation  |
\*---------------------------------------------------------------------------*/
FoamFile
{
    format      ascii;
    class       volScalarField;
    location    "2430";
    object      nut;
}
// * * * * * * * * * * * * * * * * * * * * * * * * * * * * * * * * * * * * * //

dimensions      [0 2 -1 0 0 0 0];

internalField   nonuniform List<scalar> 
400
(
7.40699e-15
7.40058e-15
7.3956e-15
7.40934e-15
1.29928e-12
1.29816e-12
1.29728e-12
1.29969e-12
2.73537e-11
2.73301e-11
2.73116e-11
2.73624e-11
2.11629e-10
2.11446e-10
2.11304e-10
2.11697e-10
9.66978e-10
9.66145e-10
9.65495e-10
9.67292e-10
3.21886e-09
3.21612e-09
3.21396e-09
3.21995e-09
8.68339e-09
8.6762e-09
8.67041e-09
8.68657e-09
2.01637e-08
2.01478e-08
2.01344e-08
2.0172e-08
4.18329e-08
4.18021e-08
4.17746e-08
4.18527e-08
7.94856e-08
7.94323e-08
7.93803e-08
7.95294e-08
1.40772e-07
1.40687e-07
1.40596e-07
1.40861e-07
2.35454e-07
2.35323e-07
2.35171e-07
2.3562e-07
3.75713e-07
3.75512e-07
3.75273e-07
3.76e-07
5.76505e-07
5.76184e-07
5.75825e-07
5.76966e-07
8.5588e-07
8.55337e-07
8.54829e-07
8.56584e-07
1.23514e-06
1.2342e-06
1.23351e-06
1.23612e-06
1.73872e-06
1.73709e-06
1.73615e-06
1.74003e-06
2.39367e-06
2.39101e-06
2.38974e-06
2.3954e-06
3.22883e-06
3.2246e-06
3.22304e-06
3.23118e-06
4.27349e-06
4.26725e-06
4.26541e-06
4.27692e-06
5.55624e-06
5.54754e-06
5.5455e-06
5.56152e-06
7.10358e-06
7.09195e-06
7.08988e-06
7.11179e-06
8.93873e-06
8.92365e-06
8.92193e-06
8.95139e-06
1.10808e-05
1.10616e-05
1.10609e-05
1.10998e-05
1.35441e-05
1.35201e-05
1.35211e-05
1.35717e-05
1.63379e-05
1.63085e-05
1.63119e-05
1.63766e-05
1.94661e-05
1.94306e-05
1.94371e-05
1.95187e-05
2.29275e-05
2.28853e-05
2.28958e-05
2.29967e-05
2.67153e-05
2.66658e-05
2.66814e-05
2.68039e-05
3.08178e-05
3.07603e-05
3.07823e-05
3.09287e-05
3.52179e-05
3.51519e-05
3.51815e-05
3.53542e-05
3.98941e-05
3.98188e-05
3.98576e-05
4.00587e-05
4.48201e-05
4.47351e-05
4.47843e-05
4.5016e-05
4.99655e-05
4.98706e-05
4.99311e-05
5.01958e-05
5.52964e-05
5.51912e-05
5.52639e-05
5.55637e-05
6.07752e-05
6.06599e-05
6.07453e-05
6.10825e-05
6.63621e-05
6.6237e-05
6.63354e-05
6.67122e-05
7.20149e-05
7.18805e-05
7.19922e-05
7.24105e-05
7.76902e-05
7.75473e-05
7.76723e-05
7.81343e-05
8.33439e-05
8.31934e-05
8.33317e-05
8.38393e-05
8.8932e-05
8.87751e-05
8.89264e-05
8.94817e-05
9.44112e-05
9.4249e-05
9.44136e-05
9.50184e-05
9.97398e-05
9.95731e-05
9.97518e-05
0.000100408
0.000104877
0.000104706
0.000104901
0.00010561
0.000109784
0.000109608
0.000109824
0.000110586
0.000114422
0.000114241
0.000114483
0.000115297
0.000118752
0.00011856
0.000118846
0.000119704
0.000122737
0.000122517
0.000122882
0.000123766
0.000126341
0.000126085
0.00012657
0.000127444
0.000129532
0.000129352
0.000129877
0.000130694
0.00013228
0.000132144
0.000132728
0.000133515
0.00013456
0.000134448
0.000135097
0.000135876
0.000136352
0.000136251
0.000136968
0.000137752
0.000137638
0.000137542
0.000138325
0.000139121
0.000138404
0.000138309
0.000139159
0.000139968
0.00013864
0.000138543
0.000139461
0.00014028
0.000138339
0.000138239
0.000139225
0.00014005
0.000137499
0.000137396
0.000138442
0.000139275
0.000136122
0.000136015
0.00013711
0.000137956
0.000134214
0.000134103
0.000135231
0.0001361
0.000131785
0.000131671
0.00013281
0.000133716
0.000128851
0.000128735
0.000129866
0.000130821
0.000125432
0.000125314
0.000126423
0.000127433
0.000121554
0.000121436
0.000122507
0.000123577
0.000117247
0.000117129
0.000118147
0.000119283
0.000112546
0.000112429
0.00011338
0.000114585
0.000107491
0.000107375
0.000108253
0.000109522
0.000102127
0.000102012
0.000102817
0.000104136
9.65028e-05
9.6389e-05
9.7114e-05
9.84784e-05
9.06702e-05
9.05577e-05
9.11929e-05
9.26032e-05
8.46858e-05
8.45736e-05
8.51078e-05
8.65681e-05
7.86086e-05
7.84937e-05
7.89188e-05
8.04329e-05
7.24986e-05
7.23718e-05
7.27025e-05
7.42539e-05
6.64152e-05
6.62661e-05
6.65667e-05
6.80766e-05
6.04149e-05
6.02539e-05
6.05443e-05
6.1967e-05
5.45466e-05
5.44697e-05
5.47378e-05
5.59649e-05
4.88473e-05
4.92543e-05
4.9324e-05
5.00773e-05
4.33733e-05
4.39584e-05
4.39373e-05
4.45776e-05
3.82771e-05
3.8858e-05
3.88235e-05
3.93836e-05
3.35571e-05
3.40448e-05
3.40129e-05
3.45185e-05
2.92065e-05
2.95467e-05
2.9536e-05
3.0007e-05
2.5153e-05
2.5417e-05
2.54161e-05
2.58718e-05
2.14103e-05
2.16997e-05
2.16544e-05
2.21342e-05
1.79404e-05
1.84448e-05
1.83183e-05
1.87562e-05
1.50371e-05
1.54887e-05
1.53789e-05
1.5756e-05
1.25069e-05
1.28977e-05
1.28052e-05
1.31238e-05
1.0319e-05
1.06517e-05
1.05744e-05
1.08404e-05
8.44565e-06
8.72568e-06
8.66135e-06
8.88164e-06
6.85832e-06
7.09183e-06
7.03855e-06
7.21956e-06
5.52778e-06
5.72083e-06
5.67692e-06
5.82462e-06
4.42464e-06
4.58298e-06
4.54694e-06
4.66676e-06
3.52031e-06
3.64925e-06
3.61974e-06
3.71654e-06
2.78774e-06
2.89217e-06
2.8681e-06
2.94602e-06
2.20221e-06
2.28647e-06
2.26696e-06
2.32952e-06
1.74172e-06
1.80953e-06
1.79387e-06
1.8442e-06
1.38735e-06
1.44173e-06
1.42948e-06
1.47032e-06
1.12354e-06
1.16662e-06
1.15791e-06
1.19164e-06
9.38626e-07
9.70783e-07
9.67085e-07
9.95706e-07
8.25858e-07
8.43266e-07
8.49522e-07
8.74528e-07
7.86208e-07
7.7354e-07
8.03834e-07
8.26071e-07
)
;

boundaryField
{
    inlet
    {
        type            cyclic;
    }
    outlet
    {
        type            cyclic;
    }
    fixedWalls-bottom
    {
        type            nutkWallFunction;
        Cmu             0.09;
        kappa           0.41;
        E               9.8;
        value           uniform 0;
    }
    fixedWalls-top
    {
        type            symmetry;
    }
    frontAndBack
    {
        type            empty;
    }
}


// ************************************************************************* //
