/*--------------------------------*- C++ -*----------------------------------*\
  =========                 |
  \\      /  F ield         | OpenFOAM: The Open Source CFD Toolbox
   \\    /   O peration     | Website:  https://openfoam.org
    \\  /    A nd           | Version:  10
     \\/     M anipulation  |
\*---------------------------------------------------------------------------*/
FoamFile
{
    format      ascii;
    class       volScalarField;
    location    "2430";
    object      omega;
}
// * * * * * * * * * * * * * * * * * * * * * * * * * * * * * * * * * * * * * //

dimensions      [0 0 -1 0 0 0 0];

internalField   nonuniform List<scalar> 
400
(
17753.9
17753.9
17753.9
17753.9
3036.62
3036.62
3036.62
3036.62
1021.45
1021.45
1021.45
1021.45
479.973
479.973
479.973
479.973
271.807
271.806
271.806
271.806
172.95
172.947
172.947
172.947
119.192
119.187
119.186
119.187
87.1188
87.1112
87.1105
87.1115
66.6566
66.6463
66.6455
66.6468
52.914
52.9012
52.9005
52.902
43.2914
43.2768
43.2761
43.2777
36.3088
36.2933
36.2927
36.2942
31.0792
31.0637
31.0631
31.0645
27.0504
27.0359
27.0352
27.0362
23.869
23.8564
23.8553
23.8555
21.3042
21.2941
21.2926
21.2924
19.2019
19.1946
19.1932
19.1919
17.457
17.4521
17.451
17.4484
15.9955
15.993
15.9916
15.9878
14.7637
14.7625
14.7609
14.7558
13.7203
13.7196
13.7178
13.7114
12.8328
12.8323
12.8301
12.8225
12.075
12.0744
12.0717
12.0628
11.4252
11.4243
11.421
11.4109
10.8651
10.8642
10.86
10.8488
10.3799
10.3786
10.3738
10.3614
9.95665
9.95513
9.94982
9.93626
9.58497
9.58319
9.57736
9.56284
9.2562
9.25415
9.24777
9.23251
8.96319
8.96088
8.95395
8.93808
8.70005
8.69753
8.69003
8.67366
8.46198
8.45932
8.45119
8.43441
8.24503
8.24223
8.23351
8.21636
8.04598
8.04306
8.03378
8.01628
7.86217
7.85913
7.84939
7.8315
7.69145
7.68828
7.67813
7.65985
7.53202
7.5287
7.51822
7.49951
7.38239
7.3789
7.36815
7.34899
7.24134
7.23763
7.22668
7.20702
7.10782
7.10385
7.09275
7.07256
6.98092
6.97664
6.96544
6.94469
6.85984
6.8552
6.84392
6.82259
6.74385
6.73885
6.72747
6.70553
6.63233
6.627
6.61542
6.59284
6.52476
6.51909
6.50719
6.484
6.42074
6.41475
6.40229
6.37862
6.32001
6.31399
6.30027
6.27645
6.22238
6.21722
6.20062
6.17742
6.12774
6.12381
6.10271
6.0816
6.03595
6.02814
6.0065
5.98929
5.94689
5.93696
5.91394
5.89901
5.8604
5.84932
5.82462
5.81091
5.7763
5.76456
5.73811
5.72501
5.69443
5.6823
5.65407
5.64124
5.61465
5.60228
5.57221
5.55952
5.53683
5.5243
5.49225
5.47976
5.46084
5.44822
5.41412
5.40182
5.38656
5.3739
5.33785
5.32558
5.31388
5.30126
5.26351
5.25092
5.24274
5.23019
5.19115
5.17771
5.17304
5.1606
5.12077
5.10585
5.10469
5.09241
5.05227
5.03522
5.03761
5.02552
4.9854
4.96578
4.97171
4.95984
4.92011
4.89744
4.90692
4.89533
4.85642
4.8301
4.84317
4.83192
4.79425
4.76372
4.78043
4.76957
4.73328
4.69835
4.71865
4.70825
4.67334
4.63396
4.65781
4.64792
4.61466
4.57045
4.59789
4.58861
4.55752
4.50774
4.53889
4.53036
4.50212
4.44577
4.48082
4.47335
4.44851
4.38455
4.4237
4.4179
4.39617
4.32433
4.36761
4.36438
4.34254
4.26615
4.31276
4.31205
4.28917
4.21001
4.25974
4.25558
4.23264
4.15764
4.21016
4.16953
4.16127
4.11384
4.16482
4.10722
4.10689
4.06114
4.11373
4.05202
4.05396
4.00825
4.05835
4.00058
4.00319
3.95588
4.00049
3.95444
3.95499
3.90415
3.95193
3.91059
3.90981
3.85254
3.91558
3.86375
3.87076
3.79906
3.90673
3.80235
3.82722
3.75039
3.8651
3.75575
3.78127
3.7033
3.82217
3.70995
3.73568
3.65734
3.77954
3.6651
3.69099
3.61244
3.7378
3.62133
3.64746
3.56864
3.69715
3.57879
3.6052
3.52604
3.65773
3.53755
3.56429
3.4847
3.61963
3.49772
3.52487
3.44472
3.58296
3.4594
3.48705
3.40617
3.54783
3.42267
3.45087
3.36915
3.51426
3.38759
3.41624
3.33368
3.48202
3.35426
3.38304
3.29958
3.45051
3.32283
3.35081
3.26635
3.41824
3.29389
3.31815
3.23274
3.38133
3.26952
3.28167
3.19604
3.32966
3.2568
3.2333
3.15043
3.23563
3.27884
3.15735
3.08322
)
;

boundaryField
{
    inlet
    {
        type            cyclic;
    }
    outlet
    {
        type            cyclic;
    }
    fixedWalls-bottom
    {
        beta1           0.075;
        blended         0;
        type            omegaWallFunction;
        value           uniform 17753.9;
    }
    fixedWalls-top
    {
        type            symmetry;
    }
    frontAndBack
    {
        type            empty;
    }
}


// ************************************************************************* //
