/*--------------------------------*- C++ -*----------------------------------*\
  =========                 |
  \\      /  F ield         | OpenFOAM: The Open Source CFD Toolbox
   \\    /   O peration     | Website:  https://openfoam.org
    \\  /    A nd           | Version:  10
     \\/     M anipulation  |
\*---------------------------------------------------------------------------*/
FoamFile
{
    format      ascii;
    class       surfaceScalarField;
    location    "2430";
    object      phi;
}
// * * * * * * * * * * * * * * * * * * * * * * * * * * * * * * * * * * * * * //

dimensions      [0 3 -1 0 0 0 0];

internalField   nonuniform List<scalar> 
696
(
6.67742e-05
-2.09709e-09
6.67751e-05
-9.38967e-10
6.6773e-05
2.0943e-09
9.38987e-10
0.000203473
-7.967e-09
0.000203476
-3.66472e-09
0.00020347
7.9643e-09
3.66478e-09
0.000345298
-1.73361e-08
0.000345303
-8.13004e-09
0.000345293
1.73334e-08
8.13013e-09
0.000492386
-2.99628e-08
0.000492392
-1.42892e-08
0.000492379
2.99602e-08
1.42893e-08
0.000644873
-4.55896e-08
0.000644881
-2.20801e-08
0.000644865
4.55869e-08
2.20803e-08
0.000802899
-6.39454e-08
0.000802908
-3.14212e-08
0.00080289
6.39428e-08
3.14214e-08
0.000966606
-8.47492e-08
0.000966617
-4.22083e-08
0.000966596
8.47467e-08
4.22086e-08
0.00113614
-1.07712e-07
0.00113615
-5.43121e-08
0.00113613
1.0771e-07
5.43124e-08
0.00131164
-1.32542e-07
0.00131166
-6.75759e-08
0.00131163
1.32539e-07
6.75762e-08
0.00149327
-1.58941e-07
0.00149328
-8.18137e-08
0.00149325
1.58938e-07
8.18141e-08
0.00168116
-1.86613e-07
0.00168117
-9.68096e-08
0.00168115
1.86611e-07
9.681e-08
0.00187547
-2.15262e-07
0.00187548
-1.12316e-07
0.00187545
2.15259e-07
1.12316e-07
0.00207635
-2.44589e-07
0.00207636
-1.28055e-07
0.00207633
2.44587e-07
1.28056e-07
0.00228394
-2.74299e-07
0.00228396
-1.43719e-07
0.00228393
2.74296e-07
1.4372e-07
0.0024984
-3.04092e-07
0.00249842
-1.58976e-07
0.00249839
3.04089e-07
1.58977e-07
0.00271988
-3.33665e-07
0.00271989
-1.73474e-07
0.00271986
3.33662e-07
1.73474e-07
0.00294851
-3.62708e-07
0.00294852
-1.86851e-07
0.00294849
3.62705e-07
1.86851e-07
0.00318444
-3.90902e-07
0.00318445
-1.98752e-07
0.00318442
3.90899e-07
1.98753e-07
0.0034278
-4.1792e-07
0.00342781
-2.0884e-07
0.00342778
4.17918e-07
2.08841e-07
0.00367873
-4.43432e-07
0.00367873
-2.16799e-07
0.00367871
4.4343e-07
2.168e-07
0.00393734
-4.67105e-07
0.00393735
-2.22347e-07
0.00393732
4.67102e-07
2.22348e-07
0.00420376
-4.88614e-07
0.00420376
-2.25232e-07
0.00420374
4.88611e-07
2.25233e-07
0.0044781
-5.07658e-07
0.0044781
-2.25241e-07
0.00447808
5.07655e-07
2.25243e-07
0.00476046
-5.23979e-07
0.00476046
-2.22199e-07
0.00476045
5.23976e-07
2.222e-07
0.00505095
-5.37395e-07
0.00505095
-2.15973e-07
0.00505093
5.37392e-07
2.15974e-07
0.00534966
-5.47797e-07
0.00534965
-2.06481e-07
0.00534964
5.47794e-07
2.06482e-07
0.00565667
-5.55154e-07
0.00565666
-1.93707e-07
0.00565665
5.55151e-07
1.93708e-07
0.00597208
-5.59504e-07
0.00597206
-1.77702e-07
0.00597206
5.59501e-07
1.77703e-07
0.00629596
-5.60948e-07
0.00629594
-1.58562e-07
0.00629594
5.60945e-07
1.58564e-07
0.00662841
-5.59631e-07
0.00662839
-1.36423e-07
0.00662839
5.59628e-07
1.36424e-07
0.0069695
-5.55748e-07
0.00696947
-1.1145e-07
0.00696948
5.55745e-07
1.11451e-07
0.00731931
-5.49538e-07
0.00731928
-8.38313e-08
0.00731928
5.49536e-07
8.38329e-08
0.00767792
-5.41273e-07
0.00767789
-5.37708e-08
0.0076779
5.4127e-07
5.37725e-08
0.00804543
-5.31219e-07
0.0080454
-2.14839e-08
0.00804541
5.31216e-07
2.14856e-08
0.00842192
-5.19615e-07
0.00842188
1.27982e-08
0.00842189
5.19612e-07
-1.27965e-08
0.00880748
-5.0664e-07
0.00880744
4.88306e-08
0.00880745
5.06637e-07
-4.88289e-08
0.00920221
-4.92388e-07
0.00920218
8.63625e-08
0.00920219
4.92385e-07
-8.63607e-08
0.00960623
-4.76831e-07
0.00960619
1.2514e-07
0.00960621
4.76827e-07
-1.25138e-07
0.0100196
-4.598e-07
0.0100196
1.64897e-07
0.0100196
4.59797e-07
-1.64895e-07
0.0104426
-4.40956e-07
0.0104425
2.0533e-07
0.0104425
4.40953e-07
-2.05328e-07
0.0108751
-4.19767e-07
0.0108751
2.4606e-07
0.0108751
4.19763e-07
-2.46058e-07
0.0113174
-3.95505e-07
0.0113174
2.86561e-07
0.0113174
3.95501e-07
-2.86559e-07
0.0117697
-3.673e-07
0.0117697
3.26072e-07
0.0117697
3.67297e-07
-3.2607e-07
0.012232
-3.34306e-07
0.012232
3.63483e-07
0.012232
3.34303e-07
-3.6348e-07
0.0127045
-2.9587e-07
0.0127045
3.97249e-07
0.0127046
2.95866e-07
-3.97247e-07
0.0131875
-2.51722e-07
0.0131874
4.254e-07
0.0131875
2.51719e-07
-4.25397e-07
0.0136809
-2.02567e-07
0.0136809
4.4574e-07
0.013681
2.02563e-07
-4.45737e-07
0.0141852
-1.51341e-07
0.0141852
4.56522e-07
0.0141852
1.51337e-07
-4.56519e-07
0.0147003
-1.03439e-07
0.0147003
4.57987e-07
0.0147003
1.03435e-07
-4.57984e-07
0.0152265
-5.83263e-08
0.0152265
4.54062e-07
0.0152266
5.83221e-08
-4.54059e-07
0.0157641
-1.12689e-08
0.0157641
4.498e-07
0.0157641
1.12644e-08
-4.49797e-07
0.0163131
3.81818e-08
0.0163131
4.48021e-07
0.0163132
-3.81866e-08
-4.48017e-07
0.0168739
8.85221e-08
0.0168739
4.49567e-07
0.0168739
-8.85273e-08
-4.49563e-07
0.0174465
1.37671e-07
0.0174465
4.5393e-07
0.0174466
-1.37677e-07
-4.53925e-07
0.0180313
1.83604e-07
0.0180313
4.59951e-07
0.0180313
-1.8361e-07
-4.59946e-07
0.0186284
2.24595e-07
0.0186283
4.66552e-07
0.0186284
-2.24601e-07
-4.66546e-07
0.019238
2.59265e-07
0.019238
4.732e-07
0.019238
-2.59272e-07
-4.73194e-07
0.0198603
2.86567e-07
0.0198603
4.79873e-07
0.0198603
-2.86574e-07
-4.79867e-07
0.0204955
3.05785e-07
0.0204955
4.86748e-07
0.0204955
-3.05792e-07
-4.86741e-07
0.0211438
3.16569e-07
0.0211438
4.93884e-07
0.0211438
-3.16577e-07
-4.93877e-07
0.0218054
3.18942e-07
0.0218054
5.00989e-07
0.0218054
-3.1895e-07
-5.00982e-07
0.0224804
3.13258e-07
0.0224804
5.07399e-07
0.0224804
-3.13266e-07
-5.07392e-07
0.023169
3.00159e-07
0.023169
5.12424e-07
0.023169
-3.00167e-07
-5.12418e-07
0.0238713
2.80526e-07
0.0238713
5.15598e-07
0.0238713
-2.80533e-07
-5.15592e-07
0.0245874
2.55354e-07
0.0245874
5.16433e-07
0.0245874
-2.55361e-07
-5.16427e-07
0.0253174
2.25661e-07
0.0253174
5.14231e-07
0.0253174
-2.25667e-07
-5.14226e-07
0.0260614
1.92491e-07
0.0260614
5.08568e-07
0.0260613
-1.92496e-07
-5.08563e-07
0.0268192
1.56986e-07
0.0268192
4.99958e-07
0.0268192
-1.5699e-07
-4.99954e-07
0.027591
1.20503e-07
0.027591
4.89584e-07
0.0275909
-1.20506e-07
-4.89581e-07
0.0283766
8.48628e-08
0.0283766
4.78273e-07
0.0283765
-8.48652e-08
-4.78272e-07
0.0291759
5.25563e-08
0.0291759
4.65388e-07
0.0291759
-5.25576e-08
-4.65387e-07
0.0299887
2.63985e-08
0.0299888
4.47525e-07
0.0299887
-2.63988e-08
-4.47525e-07
0.0308149
7.93919e-09
0.0308149
4.17929e-07
0.0308149
-7.93844e-09
-4.1793e-07
0.031654
-4.86391e-09
0.0316541
3.69513e-07
0.0316541
4.8657e-09
-3.69516e-07
0.0325058
-2.01548e-08
0.0325059
2.9627e-07
0.0325059
2.01575e-08
-2.96273e-07
0.0333698
-4.9219e-08
0.0333699
1.98331e-07
0.0333698
4.92227e-08
-1.98336e-07
0.0342454
-7.50465e-08
0.0342455
1.03779e-07
0.0342455
7.50509e-08
-1.03784e-07
0.0351321
-8.22057e-08
0.0351321
4.22842e-08
0.0351321
8.22106e-08
-4.22895e-08
0.0360291
-8.34481e-08
0.0360292
1.43476e-08
0.0360292
8.34536e-08
-1.43534e-08
0.0369358
-8.48507e-08
0.0369358
8.75739e-09
0.0369358
8.48566e-08
-8.76359e-09
0.0378513
-8.60146e-08
0.0378513
1.01542e-08
0.0378513
8.60207e-08
-1.01606e-08
0.0387747
-8.59364e-08
0.0387747
6.76028e-09
0.0387747
8.59428e-08
-6.76692e-09
0.039705
-8.62177e-08
0.039705
-6.1613e-09
0.039705
8.62243e-08
6.15451e-09
0.040641
-8.6723e-08
0.040641
-1.94677e-08
0.040641
8.67298e-08
1.94608e-08
0.0415817
-8.69095e-08
0.0415817
-2.52005e-08
0.0415817
8.69164e-08
2.51934e-08
0.0425258
-8.76876e-08
0.0425258
-2.71364e-08
0.0425258
8.76945e-08
2.71293e-08
0.043472
-8.83198e-08
0.043472
-2.75141e-08
0.043472
8.83267e-08
2.75072e-08
0.0444188
-8.79738e-08
0.0444188
-2.72437e-08
0.0444188
8.79805e-08
2.72369e-08
0.0453647
-8.61973e-08
0.0453647
-2.65647e-08
0.0453647
8.62037e-08
2.65581e-08
0.0463081
-8.28931e-08
0.0463081
-2.54926e-08
0.0463081
8.28992e-08
2.54864e-08
0.0472473
-7.81683e-08
0.0472473
-2.40244e-08
0.0472473
7.8174e-08
2.40186e-08
0.0481806
-7.22088e-08
0.0481806
-2.21922e-08
0.0481806
7.2214e-08
2.21869e-08
0.049106
-6.52096e-08
0.049106
-2.00526e-08
0.049106
6.52143e-08
2.00478e-08
0.0500215
-5.73462e-08
0.0500215
-1.7661e-08
0.0500215
5.73503e-08
1.76569e-08
0.050925
-4.87661e-08
0.050925
-1.50663e-08
0.050925
4.87695e-08
1.50628e-08
0.0518142
-3.95868e-08
0.0518141
-1.2312e-08
0.0518142
3.95895e-08
1.23093e-08
0.0526866
-2.99016e-08
0.0526866
-9.44222e-09
0.0526866
2.99037e-08
9.44017e-09
0.0535397
-1.97944e-08
0.0535397
-6.51557e-09
0.0535397
1.97956e-08
6.51428e-09
0.0543707
-9.37759e-09
0.0543707
-3.62319e-09
0.0543708
9.37812e-09
3.62267e-09
0.0551769
0.0551769
0.0551769
)
;

boundaryField
{
    inlet
    {
        type            cyclic;
        value           nonuniform List<scalar> 
100
(
-0.0551769
-0.0543708
-0.0535397
-0.0526866
-0.0518142
-0.050925
-0.0500215
-0.049106
-0.0481806
-0.0472473
-0.0463081
-0.0453647
-0.0444188
-0.043472
-0.0425258
-0.0415817
-0.040641
-0.039705
-0.0387747
-0.0378513
-0.0369358
-0.0360291
-0.0351321
-0.0342454
-0.0333697
-0.0325058
-0.031654
-0.0308149
-0.0299887
-0.0291759
-0.0283765
-0.0275909
-0.0268192
-0.0260613
-0.0253174
-0.0245874
-0.0238713
-0.023169
-0.0224804
-0.0218054
-0.0211438
-0.0204955
-0.0198603
-0.019238
-0.0186284
-0.0180313
-0.0174466
-0.0168739
-0.0163132
-0.0157641
-0.0152266
-0.0147003
-0.0141852
-0.013681
-0.0131875
-0.0127046
-0.012232
-0.0117697
-0.0113175
-0.0108751
-0.0104426
-0.0100197
-0.00960625
-0.00920223
-0.00880749
-0.00842193
-0.00804544
-0.00767793
-0.00731931
-0.0069695
-0.00662841
-0.00629596
-0.00597207
-0.00565666
-0.00534965
-0.00505094
-0.00476045
-0.00447808
-0.00420374
-0.00393732
-0.0036787
-0.00342777
-0.00318441
-0.00294848
-0.00271985
-0.00249837
-0.00228391
-0.00207632
-0.00187544
-0.00168113
-0.00149324
-0.00131162
-0.00113612
-0.000966586
-0.000802881
-0.000644857
-0.000492373
-0.000345289
-0.000203467
-6.67721e-05
)
;
    }
    outlet
    {
        type            cyclic;
        value           nonuniform List<scalar> 
100
(
0.0551769
0.0543708
0.0535397
0.0526866
0.0518142
0.050925
0.0500215
0.049106
0.0481806
0.0472473
0.0463081
0.0453647
0.0444188
0.043472
0.0425258
0.0415817
0.040641
0.039705
0.0387747
0.0378513
0.0369358
0.0360291
0.0351321
0.0342454
0.0333697
0.0325058
0.031654
0.0308149
0.0299887
0.0291759
0.0283765
0.0275909
0.0268192
0.0260613
0.0253174
0.0245874
0.0238713
0.023169
0.0224804
0.0218054
0.0211438
0.0204955
0.0198603
0.019238
0.0186284
0.0180313
0.0174466
0.0168739
0.0163132
0.0157641
0.0152266
0.0147003
0.0141852
0.013681
0.0131875
0.0127046
0.012232
0.0117697
0.0113175
0.0108751
0.0104426
0.0100197
0.00960625
0.00920223
0.00880749
0.00842193
0.00804544
0.00767793
0.00731931
0.0069695
0.00662841
0.00629596
0.00597207
0.00565666
0.00534965
0.00505094
0.00476045
0.00447808
0.00420374
0.00393732
0.0036787
0.00342777
0.00318441
0.00294848
0.00271985
0.00249837
0.00228391
0.00207632
0.00187544
0.00168113
0.00149324
0.00131162
0.00113612
0.000966586
0.000802881
0.000644857
0.000492373
0.000345289
0.000203467
6.67721e-05
)
;
    }
    fixedWalls-bottom
    {
        type            calculated;
        value           uniform 0;
    }
    fixedWalls-top
    {
        type            symmetry;
        value           uniform 0;
    }
    frontAndBack
    {
        type            empty;
        value           nonuniform List<scalar> 0();
    }
}


// ************************************************************************* //
