# Residuals   
# Time        	p             	Ux            	Uy            
0             	N/A	N/A
1             	9.999964e-01	0.000000e+00	0.000000e+00
2             	1.000000e+00	9.886240e-01	1.000000e+00
3             	2.082952e-01	4.764848e-01	5.222679e-01
4             	1.325980e-01	9.004581e-02	2.637230e-01
5             	1.505967e-01	7.239291e-02	3.826600e-01
6             	2.307933e-01	6.146419e-02	6.865991e-01
7             	1.675415e-01	4.701233e-02	4.158212e-01
8             	1.818721e-01	4.442384e-02	2.906651e-01
9             	1.727475e-01	3.596382e-02	2.587327e-01
10            	2.020256e-01	2.988395e-02	2.837501e-01
11            	2.235303e-01	2.577502e-02	2.144201e-01
12            	2.178941e-01	2.263564e-02	2.150161e-01
13            	1.581884e-01	2.033696e-02	2.389592e-01
14            	1.166761e-01	1.849687e-02	2.077675e-01
15            	8.862016e-02	1.705680e-02	1.822669e-01
16            	6.645964e-02	1.584783e-02	1.709838e-01
17            	5.260741e-02	1.485074e-02	1.433854e-01
18            	4.171862e-02	1.397771e-02	1.349405e-01
19            	3.122807e-02	1.325183e-02	1.324090e-01
20            	2.869217e-02	1.259003e-02	1.138181e-01
21            	2.718288e-02	1.204390e-02	8.391145e-02
22            	2.486429e-02	1.153175e-02	6.127247e-02
23            	2.180244e-02	1.108164e-02	4.257551e-02
24            	2.240026e-02	1.067132e-02	3.521891e-02
25            	1.935917e-02	1.029007e-02	3.100545e-02
26            	1.559531e-02	9.948335e-03	3.123555e-02
27            	1.390049e-02	9.633437e-03	3.333772e-02
28            	1.303120e-02	9.341497e-03	3.391535e-02
29            	1.007286e-02	9.073290e-03	3.213844e-02
30            	8.837475e-03	8.734282e-03	3.101983e-02
31            	7.524728e-03	8.414697e-03	3.035723e-02
32            	5.878644e-03	8.113877e-03	2.856386e-02
33            	5.357121e-03	7.846405e-03	2.715222e-02
34            	4.443050e-03	7.597118e-03	2.746543e-02
35            	4.337915e-03	7.368587e-03	2.798598e-02
36            	3.796640e-03	7.164184e-03	2.881967e-02
37            	3.566771e-03	6.977928e-03	2.862571e-02
38            	2.976639e-03	6.803566e-03	2.775721e-02
39            	2.632465e-03	6.640184e-03	2.616237e-02
40            	2.532436e-03	6.488541e-03	2.570317e-02
41            	2.457781e-03	6.349526e-03	2.519955e-02
42            	2.411362e-03	6.217979e-03	2.585031e-02
43            	2.294617e-03	6.094627e-03	2.613164e-02
44            	2.172138e-03	5.974453e-03	2.624665e-02
45            	2.080828e-03	5.864634e-03	2.581970e-02
46            	2.059823e-03	5.760368e-03	2.490782e-02
47            	1.867053e-03	5.659880e-03	2.410841e-02
48            	1.937885e-03	5.562079e-03	2.296028e-02
49            	1.691363e-03	5.469189e-03	2.231523e-02
50            	1.589081e-03	5.382638e-03	2.128112e-02
51            	1.447394e-03	5.298451e-03	2.003515e-02
52            	1.358433e-03	5.215912e-03	1.902224e-02
53            	1.378574e-03	5.134609e-03	1.787297e-02
54            	1.274794e-03	5.058680e-03	1.710443e-02
55            	1.179184e-03	4.986652e-03	1.629832e-02
56            	1.187556e-03	4.916878e-03	1.551725e-02
57            	1.003706e-03	4.847936e-03	1.482343e-02
58            	9.938396e-04	4.779153e-03	1.431879e-02
59            	9.338551e-04	4.716592e-03	1.412680e-02
60            	8.912762e-04	4.656078e-03	1.392710e-02
61            	7.763447e-04	4.597083e-03	1.363999e-02
62            	8.373710e-04	4.539144e-03	1.319148e-02
63            	8.068337e-04	4.481751e-03	1.300573e-02
64            	7.907234e-04	4.428954e-03	1.266119e-02
65            	8.457121e-04	4.378957e-03	1.236303e-02
66            	8.057199e-04	4.330384e-03	1.242750e-02
67            	6.816041e-04	4.282736e-03	1.204176e-02
68            	6.698973e-04	4.235667e-03	1.162614e-02
69            	6.318496e-04	4.191511e-03	1.144531e-02
70            	6.916040e-04	4.149922e-03	1.142569e-02
71            	6.410899e-04	4.109489e-03	1.152035e-02
72            	7.430604e-04	4.070086e-03	1.141810e-02
73            	5.901939e-04	4.031500e-03	1.133615e-02
74            	5.583804e-04	3.994370e-03	1.076627e-02
75            	5.463498e-04	3.962149e-03	1.060681e-02
76            	4.955008e-04	3.930243e-03	1.064925e-02
77            	4.907223e-04	3.899387e-03	1.061856e-02
78            	5.042479e-04	3.869124e-03	1.079404e-02
79            	7.083802e-04	3.839835e-03	1.098941e-02
80            	4.918328e-04	3.812368e-03	1.016191e-02
81            	5.180321e-04	3.787241e-03	9.689450e-03
82            	4.605736e-04	3.763238e-03	9.950419e-03
83            	4.757384e-04	3.738997e-03	1.029885e-02
84            	5.365129e-04	3.714790e-03	1.059316e-02
85            	4.739328e-04	3.691925e-03	1.033262e-02
86            	4.519251e-04	3.670917e-03	1.023199e-02
87            	4.905697e-04	3.651343e-03	9.879056e-03
88            	4.516366e-04	3.631586e-03	9.809853e-03
89            	4.767855e-04	3.612394e-03	9.979709e-03
90            	4.485202e-04	3.593782e-03	1.017552e-02
91            	5.454524e-04	3.576192e-03	1.035168e-02
92            	4.630347e-04	3.558530e-03	1.021967e-02
93            	4.929735e-04	3.542220e-03	1.032481e-02
94            	3.894821e-04	3.526355e-03	1.027958e-02
95            	4.138497e-04	3.510932e-03	1.042221e-02
96            	4.962329e-04	3.495933e-03	1.039401e-02
97            	4.231725e-04	3.480347e-03	1.026130e-02
98            	3.581477e-04	3.464734e-03	1.021363e-02
99            	4.067549e-04	3.451803e-03	1.023566e-02
100           	3.931067e-04	3.438987e-03	1.033262e-02
101           	4.259630e-04	3.425457e-03	1.030647e-02
102           	4.026886e-04	3.412485e-03	1.055128e-02
103           	4.034739e-04	3.399733e-03	1.085204e-02
104           	4.098251e-04	3.386752e-03	1.095113e-02
105           	3.664855e-04	3.374183e-03	1.083864e-02
106           	3.856929e-04	3.362705e-03	1.067772e-02
107           	4.473030e-04	3.351600e-03	1.007884e-02
108           	3.897662e-04	3.340696e-03	9.704149e-03
109           	4.572595e-04	3.329219e-03	9.406672e-03
110           	3.945067e-04	3.317074e-03	1.023105e-02
111           	3.495366e-04	3.305894e-03	1.087731e-02
112           	3.567885e-04	3.296235e-03	1.114076e-02
113           	3.480447e-04	3.286910e-03	1.094685e-02
114           	3.451821e-04	3.277654e-03	1.092722e-02
115           	3.223170e-04	3.268168e-03	1.084293e-02
116           	2.925682e-04	3.258522e-03	1.071663e-02
117           	2.983554e-04	3.248851e-03	1.060016e-02
118           	3.335376e-04	3.241091e-03	1.053430e-02
119           	3.050645e-04	3.234742e-03	1.056916e-02
120           	3.195541e-04	3.228403e-03	1.056823e-02
121           	3.029574e-04	3.221781e-03	1.047780e-02
122           	3.095217e-04	3.215030e-03	1.040712e-02
123           	2.627211e-04	3.208305e-03	1.024444e-02
124           	2.956782e-04	3.202845e-03	9.987659e-03
125           	2.865404e-04	3.198261e-03	9.872390e-03
126           	2.950179e-04	3.193151e-03	9.828719e-03
127           	2.725313e-04	3.187831e-03	9.777340e-03
128           	2.640051e-04	3.182491e-03	9.701969e-03
129           	3.082151e-04	3.177376e-03	9.474491e-03
130           	3.077310e-04	3.172673e-03	9.414019e-03
131           	2.756576e-04	3.169031e-03	9.297426e-03
132           	2.746324e-04	3.165003e-03	9.146490e-03
133           	2.682653e-04	3.160898e-03	9.029756e-03
134           	3.072124e-04	3.156800e-03	8.868746e-03
135           	2.697308e-04	3.152464e-03	8.727081e-03
136           	2.581082e-04	3.148200e-03	8.590449e-03
137           	2.522373e-04	3.145267e-03	8.497024e-03
138           	2.518032e-04	3.142095e-03	8.463553e-03
139           	2.613829e-04	3.138920e-03	8.296560e-03
140           	2.777778e-04	3.135923e-03	8.099731e-03
141           	2.828282e-04	3.131650e-03	8.060603e-03
142           	2.699365e-04	3.128124e-03	8.033217e-03
143           	2.421464e-04	3.126064e-03	7.904350e-03
144           	2.328043e-04	3.123867e-03	7.772971e-03
145           	2.754237e-04	3.121707e-03	7.675773e-03
146           	2.662892e-04	3.119499e-03	7.709177e-03
147           	2.578503e-04	3.115706e-03	7.690057e-03
148           	2.612947e-04	3.112403e-03	7.640802e-03
149           	2.346489e-04	3.111154e-03	7.576509e-03
150           	2.390513e-04	3.109897e-03	7.492916e-03
151           	2.669298e-04	3.108742e-03	7.379287e-03
152           	2.690002e-04	3.106841e-03	7.365345e-03
153           	2.433774e-04	3.104071e-03	7.302224e-03
154           	2.951128e-04	3.101566e-03	7.195459e-03
155           	2.726045e-04	3.100347e-03	7.131758e-03
156           	2.735247e-04	3.099999e-03	7.012995e-03
157           	2.993036e-04	3.099773e-03	6.851259e-03
158           	2.920892e-04	3.098285e-03	6.804499e-03
159           	2.774619e-04	3.096510e-03	6.785002e-03
160           	2.683438e-04	3.094974e-03	6.740196e-03
161           	2.538864e-04	3.093724e-03	6.681749e-03
162           	2.812290e-04	3.093414e-03	6.577369e-03
163           	2.839626e-04	3.093812e-03	6.501679e-03
164           	2.841910e-04	3.092628e-03	6.471829e-03
165           	2.945374e-04	3.091564e-03	6.450232e-03
166           	3.199672e-04	3.090936e-03	6.411228e-03
167           	2.963924e-04	3.090599e-03	6.377480e-03
168           	3.511097e-04	3.089528e-03	6.282952e-03
169           	3.283602e-04	3.090373e-03	6.248040e-03
170           	3.164940e-04	3.090081e-03	6.211757e-03
171           	2.943038e-04	3.089959e-03	6.163701e-03
172           	2.799384e-04	3.090134e-03	6.111794e-03
173           	2.622736e-04	3.090575e-03	6.058270e-03
174           	3.290587e-04	3.088536e-03	5.995971e-03
175           	3.812220e-04	3.089681e-03	6.020239e-03
176           	3.594408e-04	3.090213e-03	6.027393e-03
177           	3.378190e-04	3.090952e-03	5.983607e-03
178           	3.219602e-04	3.091984e-03	5.941683e-03
179           	2.987703e-04	3.093276e-03	5.885993e-03
180           	3.697595e-04	3.090334e-03	5.839509e-03
181           	3.373701e-04	3.091781e-03	5.849949e-03
182           	3.186037e-04	3.093010e-03	5.826315e-03
183           	3.062415e-04	3.094491e-03	5.773961e-03
184           	3.638628e-04	3.096306e-03	5.773941e-03
185           	4.338909e-04	3.097498e-03	5.756615e-03
186           	3.965430e-04	3.094284e-03	5.755075e-03
187           	3.788116e-04	3.096134e-03	5.714766e-03
188           	3.449884e-04	3.098129e-03	5.656625e-03
189           	3.268063e-04	3.100409e-03	5.592132e-03
190           	3.035944e-04	3.102948e-03	5.558659e-03
191           	3.813239e-04	3.101929e-03	5.514159e-03
192           	4.265664e-04	3.100639e-03	5.531778e-03
193           	3.855694e-04	3.102346e-03	5.518638e-03
194           	3.553129e-04	3.105112e-03	5.488004e-03
195           	3.382814e-04	3.108149e-03	5.431282e-03
196           	4.243302e-04	3.110487e-03	5.404070e-03
197           	3.771593e-04	3.109502e-03	5.382385e-03
198           	3.568988e-04	3.110946e-03	5.341718e-03
199           	3.357456e-04	3.112951e-03	5.298961e-03
200           	3.939344e-04	3.115531e-03	5.316254e-03
201           	3.667297e-04	3.118493e-03	5.285916e-03
202           	4.580640e-04	3.119266e-03	5.274069e-03
203           	3.998957e-04	3.121770e-03	5.235663e-03
204           	3.590948e-04	3.124243e-03	5.209211e-03
205           	3.306390e-04	3.126945e-03	5.158925e-03
206           	3.076611e-04	3.130090e-03	5.125474e-03
207           	4.939445e-04	3.133674e-03	5.112693e-03
208           	4.352329e-04	3.136962e-03	5.102691e-03
209           	4.052933e-04	3.139993e-03	5.090045e-03
210           	3.705231e-04	3.143215e-03	5.053941e-03
211           	3.443083e-04	3.146374e-03	5.005497e-03
212           	4.429737e-04	3.149891e-03	4.973574e-03
213           	4.955532e-04	3.153523e-03	4.981324e-03
214           	4.567015e-04	3.157008e-03	4.961866e-03
215           	4.233441e-04	3.160609e-03	4.935175e-03
216           	3.861334e-04	3.164424e-03	4.893856e-03
217           	5.603378e-04	3.168514e-03	4.892589e-03
218           	5.175213e-04	3.172447e-03	4.860382e-03
219           	4.733758e-04	3.176300e-03	4.856028e-03
220           	6.095090e-04	3.180233e-03	4.859272e-03
221           	5.227955e-04	3.184219e-03	4.805888e-03
222           	9.532060e-04	3.188020e-03	4.730447e-03
223           	5.987624e-04	3.191432e-03	4.756749e-03
224           	4.151317e-04	3.193935e-03	4.867017e-03
225           	3.322622e-04	3.195494e-03	4.901970e-03
226           	2.701459e-04	3.196349e-03	4.872250e-03
227           	2.369687e-04	3.196734e-03	4.834317e-03
228           	1.969626e-04	3.196821e-03	4.784766e-03
229           	1.744566e-04	3.196727e-03	4.736776e-03
230           	1.566971e-04	3.196592e-03	4.698446e-03
231           	1.438646e-04	3.196716e-03	4.669059e-03
232           	1.371069e-04	3.196770e-03	4.635146e-03
233           	1.364711e-04	3.196781e-03	4.601936e-03
234           	1.359524e-04	3.196767e-03	4.573326e-03
235           	1.348000e-04	3.196742e-03	4.539679e-03
236           	1.357790e-04	3.196715e-03	4.506366e-03
237           	1.375104e-04	3.196694e-03	4.476884e-03
238           	1.374305e-04	3.196684e-03	4.444615e-03
239           	1.388075e-04	3.196688e-03	4.414581e-03
240           	1.415130e-04	3.196710e-03	4.389085e-03
241           	1.418123e-04	3.196751e-03	4.361187e-03
242           	1.436138e-04	3.196811e-03	4.333858e-03
243           	1.454799e-04	3.196893e-03	4.311348e-03
244           	1.468837e-04	3.196998e-03	4.286069e-03
245           	1.487124e-04	3.197124e-03	4.261513e-03
246           	1.509873e-04	3.197272e-03	4.242129e-03
247           	1.510056e-04	3.197443e-03	4.218105e-03
248           	1.503247e-04	3.197637e-03	4.198122e-03
249           	1.496372e-04	3.197853e-03	4.185914e-03
250           	1.469680e-04	3.198091e-03	4.173005e-03
251           	1.459443e-04	3.198350e-03	4.166601e-03
252           	1.454914e-04	3.198631e-03	4.167294e-03
253           	1.455126e-04	3.198932e-03	4.166367e-03
254           	1.476414e-04	3.199254e-03	4.166525e-03
255           	1.489450e-04	3.199596e-03	4.171945e-03
256           	1.498473e-04	3.199957e-03	4.174462e-03
257           	1.505082e-04	3.200337e-03	4.177928e-03
258           	1.511195e-04	3.200736e-03	4.186143e-03
259           	1.505279e-04	3.201154e-03	4.192792e-03
260           	1.498455e-04	3.201589e-03	4.201318e-03
261           	1.508128e-04	3.202042e-03	4.215796e-03
262           	1.486648e-04	3.202512e-03	4.227214e-03
263           	1.470260e-04	3.202999e-03	4.238932e-03
264           	1.498407e-04	3.203503e-03	4.252684e-03
265           	1.503875e-04	3.204022e-03	4.260142e-03
266           	1.506353e-04	3.204558e-03	4.266829e-03
267           	1.531017e-04	3.205108e-03	4.280638e-03
268           	1.537716e-04	3.205674e-03	4.294218e-03
269           	1.545985e-04	3.206254e-03	4.309684e-03
270           	1.561799e-04	3.206849e-03	4.328683e-03
271           	1.563174e-04	3.207457e-03	4.344197e-03
272           	1.578688e-04	3.208080e-03	4.358905e-03
273           	1.579197e-04	3.208716e-03	4.376901e-03
274           	1.588658e-04	3.209365e-03	4.391038e-03
275           	1.594844e-04	3.210028e-03	4.404572e-03
276           	1.603471e-04	3.210702e-03	4.420225e-03
277           	1.613914e-04	3.211390e-03	4.433775e-03
278           	1.654353e-04	3.212089e-03	4.447756e-03
279           	1.660923e-04	3.212801e-03	4.462480e-03
280           	1.689104e-04	3.213524e-03	4.475173e-03
281           	1.710750e-04	3.214260e-03	4.485456e-03
282           	1.772260e-04	3.215007e-03	4.495911e-03
283           	1.801900e-04	3.215764e-03	4.501036e-03
284           	1.887698e-04	3.216533e-03	4.505370e-03
285           	1.941406e-04	3.217313e-03	4.506399e-03
286           	1.964504e-04	3.218103e-03	4.501101e-03
287           	1.948740e-04	3.218904e-03	4.494213e-03
288           	2.047603e-04	3.219715e-03	4.493343e-03
289           	2.072390e-04	3.220537e-03	4.489296e-03
290           	2.033515e-04	3.221368e-03	4.483472e-03
291           	2.084111e-04	3.222208e-03	4.483310e-03
292           	2.134889e-04	3.223059e-03	4.481209e-03
293           	2.152443e-04	3.223919e-03	4.477996e-03
294           	1.900376e-04	3.224789e-03	4.477877e-03
295           	2.275706e-04	3.225668e-03	4.486721e-03
296           	2.392951e-04	3.226556e-03	4.487219e-03
297           	2.245797e-04	3.227453e-03	4.482257e-03
298           	2.164694e-04	3.228359e-03	4.481082e-03
299           	2.379865e-04	3.229275e-03	4.486226e-03
300           	2.416157e-04	3.230199e-03	4.489871e-03
301           	2.249163e-04	3.231132e-03	4.488896e-03
302           	2.507823e-04	3.232073e-03	4.494155e-03
303           	2.396524e-04	3.233023e-03	4.495804e-03
304           	2.607302e-04	3.233982e-03	4.498790e-03
305           	2.492868e-04	3.234949e-03	4.498507e-03
306           	2.642883e-04	3.235925e-03	4.506609e-03
307           	2.550834e-04	3.236909e-03	4.508547e-03
308           	2.756271e-04	3.237901e-03	4.514539e-03
309           	2.683535e-04	3.238902e-03	4.517625e-03
310           	2.782241e-04	3.239911e-03	4.520814e-03
311           	2.797376e-04	3.240928e-03	4.524201e-03
312           	2.794680e-04	3.241953e-03	4.530656e-03
313           	2.846748e-04	3.242986e-03	4.536145e-03
314           	2.894908e-04	3.244028e-03	4.541191e-03
315           	2.885836e-04	3.245078e-03	4.548267e-03
316           	2.971803e-04	3.246136e-03	4.553327e-03
317           	2.995434e-04	3.247202e-03	4.558223e-03
318           	3.033543e-04	3.248276e-03	4.563493e-03
319           	3.028085e-04	3.249359e-03	4.571267e-03
320           	2.966614e-04	3.250450e-03	4.572857e-03
321           	3.079640e-04	3.251549e-03	4.581485e-03
322           	3.294143e-04	3.252656e-03	4.591431e-03
323           	3.115122e-04	3.253771e-03	4.597021e-03
324           	3.421596e-04	3.254895e-03	4.604983e-03
325           	3.248337e-04	3.256028e-03	4.608778e-03
326           	3.488411e-04	3.257168e-03	4.618724e-03
327           	3.281513e-04	3.258316e-03	4.624120e-03
328           	3.518201e-04	3.259473e-03	4.633632e-03
329           	3.619786e-04	3.260638e-03	4.645672e-03
330           	3.475979e-04	3.261812e-03	4.653032e-03
331           	3.585354e-04	3.262993e-03	4.661446e-03
332           	3.814845e-04	3.264184e-03	4.671731e-03
333           	3.581103e-04	3.265383e-03	4.679018e-03
334           	3.897229e-04	3.266590e-03	4.689124e-03
335           	3.725088e-04	3.267806e-03	4.696705e-03
336           	4.059372e-04	3.269031e-03	4.706512e-03
337           	3.841909e-04	3.270262e-03	4.714596e-03
338           	4.164280e-04	3.271501e-03	4.725372e-03
339           	3.938114e-04	3.272746e-03	4.734209e-03
340           	4.294317e-04	3.273998e-03	4.745008e-03
341           	4.222046e-04	3.275260e-03	4.754045e-03
342           	4.389164e-04	3.276530e-03	4.763074e-03
343           	4.388408e-04	3.277809e-03	4.771269e-03
344           	4.526119e-04	3.279097e-03	4.779679e-03
345           	4.524094e-04	3.280394e-03	4.787059e-03
346           	4.635260e-04	3.281701e-03	4.795344e-03
347           	4.600653e-04	3.283016e-03	4.804431e-03
348           	4.741383e-04	3.284340e-03	4.815195e-03
349           	4.740322e-04	3.285675e-03	4.825969e-03
350           	4.909288e-04	3.287019e-03	4.836693e-03
351           	4.943426e-04	3.288371e-03	4.846430e-03
352           	5.128691e-04	3.289713e-03	4.855903e-03
353           	5.150305e-04	3.291064e-03	4.864583e-03
354           	5.309858e-04	3.292424e-03	4.873082e-03
355           	5.324618e-04	3.293790e-03	4.881222e-03
356           	5.478598e-04	3.295147e-03	4.889445e-03
357           	5.473567e-04	3.296514e-03	4.897243e-03
358           	5.625396e-04	3.297890e-03	4.905346e-03
359           	5.610233e-04	3.299277e-03	4.913248e-03
360           	5.710464e-04	3.300674e-03	4.920561e-03
361           	5.697775e-04	3.302082e-03	4.929190e-03
362           	5.919735e-04	3.303499e-03	4.939528e-03
363           	5.814531e-04	3.304927e-03	4.948942e-03
364           	5.946766e-04	3.306366e-03	4.958149e-03
365           	5.951948e-04	3.307815e-03	4.967420e-03
366           	6.106581e-04	3.309275e-03	4.976070e-03
367           	6.178915e-04	3.310654e-03	4.993611e-03
368           	6.268845e-04	3.312038e-03	5.010589e-03
369           	6.017229e-04	3.313435e-03	5.026671e-03
370           	6.039650e-04	3.314845e-03	5.044473e-03
371           	6.197499e-04	3.316271e-03	5.063111e-03
372           	6.434429e-04	3.317712e-03	5.082218e-03
373           	6.468152e-04	3.319170e-03	5.101012e-03
374           	6.822786e-04	3.320645e-03	5.119085e-03
375           	6.913873e-04	3.322137e-03	5.134415e-03
376           	7.145930e-04	3.323646e-03	5.148553e-03
377           	7.630951e-04	3.325173e-03	5.162497e-03
378           	7.925564e-04	3.326717e-03	5.174628e-03
379           	8.196593e-04	3.328279e-03	5.186689e-03
380           	8.272339e-04	3.329858e-03	5.195610e-03
381           	8.499279e-04	3.331455e-03	5.206183e-03
382           	8.348098e-04	3.333070e-03	5.213519e-03
383           	8.802278e-04	3.334702e-03	5.225266e-03
384           	8.733291e-04	3.336352e-03	5.233955e-03
385           	9.217267e-04	3.338020e-03	5.246452e-03
386           	9.143546e-04	3.339705e-03	5.255116e-03
387           	9.591563e-04	3.341408e-03	5.265760e-03
388           	9.952470e-04	3.343128e-03	5.278032e-03
389           	9.806226e-04	3.344866e-03	5.286226e-03
390           	1.024678e-03	3.346621e-03	5.296734e-03
391           	1.057023e-03	3.348394e-03	5.307642e-03
392           	1.088460e-03	3.350185e-03	5.318675e-03
393           	1.092286e-03	3.351993e-03	5.328985e-03
394           	1.127351e-03	3.353819e-03	5.340032e-03
395           	1.158403e-03	3.355663e-03	5.350962e-03
396           	1.186364e-03	3.357524e-03	5.360715e-03
397           	1.207384e-03	3.359403e-03	5.369673e-03
398           	1.238793e-03	3.361300e-03	5.378013e-03
399           	1.261345e-03	3.363215e-03	5.386360e-03
400           	1.291218e-03	3.365147e-03	5.394632e-03
401           	1.323403e-03	3.367098e-03	5.402878e-03
402           	1.347648e-03	3.369066e-03	5.411276e-03
403           	1.377737e-03	3.371052e-03	5.419421e-03
404           	1.401164e-03	3.373057e-03	5.427505e-03
405           	1.432458e-03	3.375080e-03	5.435216e-03
406           	1.467346e-03	3.377120e-03	5.442656e-03
407           	1.493820e-03	3.379180e-03	5.450118e-03
408           	1.527585e-03	3.381257e-03	5.457280e-03
409           	1.555499e-03	3.383353e-03	5.464415e-03
410           	1.592305e-03	3.385468e-03	5.471245e-03
411           	1.624340e-03	3.387602e-03	5.478063e-03
412           	1.665661e-03	3.389752e-03	5.484632e-03
413           	1.700712e-03	3.391916e-03	5.491213e-03
414           	1.744511e-03	3.394096e-03	5.497575e-03
415           	1.781314e-03	3.396291e-03	5.503955e-03
416           	1.826916e-03	3.398506e-03	5.510136e-03
417           	1.864893e-03	3.400739e-03	5.516314e-03
418           	1.911606e-03	3.402993e-03	5.522305e-03
419           	1.951031e-03	3.405262e-03	5.528286e-03
420           	1.998959e-03	3.407509e-03	5.534102e-03
421           	2.038972e-03	3.409757e-03	5.539893e-03
422           	2.074954e-03	3.411997e-03	5.545619e-03
423           	2.124371e-03	3.414256e-03	5.551134e-03
424           	2.167494e-03	3.416535e-03	5.556548e-03
425           	2.206271e-03	3.418833e-03	5.561859e-03
426           	2.257965e-03	3.421151e-03	5.566956e-03
427           	2.301585e-03	3.423488e-03	5.571946e-03
428           	2.340148e-03	3.425846e-03	5.576843e-03
429           	2.392613e-03	3.428224e-03	5.581563e-03
430           	2.434951e-03	3.430623e-03	5.586152e-03
431           	2.470408e-03	3.433042e-03	5.590651e-03
432           	2.519499e-03	3.435482e-03	5.595021e-03
433           	2.556680e-03	3.437943e-03	5.599273e-03
434           	2.586711e-03	3.440424e-03	5.603442e-03
435           	2.630309e-03	3.442928e-03	5.607530e-03
436           	2.661780e-03	3.445452e-03	5.611509e-03
437           	2.674975e-03	3.447999e-03	5.616180e-03
438           	2.704730e-03	3.450567e-03	5.620458e-03
439           	2.728094e-03	3.453157e-03	5.624187e-03
440           	2.745356e-03	3.455770e-03	5.627503e-03
441           	2.757193e-03	3.458404e-03	5.630603e-03
442           	2.779775e-03	3.461062e-03	5.633639e-03
443           	2.791940e-03	3.463742e-03	5.636573e-03
444           	2.797777e-03	3.466446e-03	5.639388e-03
445           	2.797216e-03	3.469172e-03	5.642078e-03
446           	2.810757e-03	3.471922e-03	5.644679e-03
447           	2.811188e-03	3.474696e-03	5.647097e-03
448           	2.808031e-03	3.477494e-03	5.649293e-03
449           	2.792454e-03	3.480316e-03	5.651326e-03
450           	2.798080e-03	3.483162e-03	5.653275e-03
451           	2.778992e-03	3.486032e-03	5.655084e-03
452           	2.769242e-03	3.488928e-03	5.656651e-03
453           	2.731289e-03	3.491848e-03	5.658113e-03
454           	2.722245e-03	3.494794e-03	5.659356e-03
455           	2.681946e-03	3.497765e-03	5.660670e-03
456           	2.689452e-03	3.500762e-03	5.661704e-03
457           	2.614685e-03	3.503785e-03	5.662565e-03
458           	2.627914e-03	3.506835e-03	5.663203e-03
459           	2.540212e-03	3.509910e-03	5.663325e-03
460           	2.565603e-03	3.513013e-03	5.663917e-03
461           	2.478384e-03	3.516141e-03	5.663457e-03
462           	2.490412e-03	3.519221e-03	5.663817e-03
463           	2.391851e-03	3.522267e-03	5.662606e-03
464           	2.401841e-03	3.525339e-03	5.662847e-03
465           	2.313392e-03	3.528437e-03	5.661130e-03
466           	2.330607e-03	3.531559e-03	5.661442e-03
467           	2.227137e-03	3.534699e-03	5.658864e-03
468           	2.236417e-03	3.537859e-03	5.659017e-03
469           	2.134049e-03	3.541041e-03	5.655596e-03
470           	2.164120e-03	3.544251e-03	5.655869e-03
471           	2.071402e-03	3.547489e-03	5.651658e-03
472           	2.085360e-03	3.550755e-03	5.651646e-03
473           	1.980799e-03	3.554050e-03	5.646340e-03
474           	1.994153e-03	3.557373e-03	5.646165e-03
475           	1.894555e-03	3.560725e-03	5.639884e-03
476           	1.933584e-03	3.564107e-03	5.639865e-03
477           	1.844289e-03	3.567518e-03	5.632765e-03
478           	1.857281e-03	3.570959e-03	5.632434e-03
479           	1.760471e-03	3.574430e-03	5.624135e-03
480           	1.770549e-03	3.577931e-03	5.623536e-03
481           	1.678748e-03	3.581463e-03	5.614262e-03
482           	1.715326e-03	3.585027e-03	5.613713e-03
483           	1.636346e-03	3.588621e-03	5.603546e-03
484           	1.643603e-03	3.592248e-03	5.602574e-03
485           	1.558873e-03	3.595906e-03	5.591211e-03
486           	1.562653e-03	3.599597e-03	5.589957e-03
487           	1.481928e-03	3.603320e-03	5.577639e-03
488           	1.515929e-03	3.607077e-03	5.575469e-03
489           	1.446663e-03	3.610866e-03	5.562934e-03
490           	1.452281e-03	3.614690e-03	5.560725e-03
491           	1.376149e-03	3.618547e-03	5.547298e-03
492           	1.382039e-03	3.622427e-03	5.544854e-03
493           	1.312885e-03	3.626197e-03	5.529233e-03
494           	1.338408e-03	3.629969e-03	5.528330e-03
495           	1.284119e-03	3.633774e-03	5.512070e-03
496           	1.287715e-03	3.637613e-03	5.509491e-03
497           	1.223568e-03	3.641486e-03	5.492299e-03
498           	1.223702e-03	3.645393e-03	5.489843e-03
499           	1.163864e-03	3.649335e-03	5.472044e-03
500           	1.189789e-03	3.653312e-03	5.469707e-03
501           	1.142122e-03	3.657324e-03	5.451076e-03
502           	1.145636e-03	3.661372e-03	5.448246e-03
503           	1.094525e-03	3.665456e-03	5.428669e-03
504           	1.107828e-03	3.669577e-03	5.425749e-03
505           	1.018641e-03	3.673955e-03	5.407965e-03
506           	9.853982e-04	3.678397e-03	5.412672e-03
507           	9.971387e-04	3.682885e-03	5.399832e-03
508           	9.973215e-04	3.687164e-03	5.419982e-03
509           	9.849163e-04	3.691707e-03	5.407377e-03
510           	9.839902e-04	3.696302e-03	5.411731e-03
511           	9.545764e-04	3.700924e-03	5.397916e-03
512           	9.265002e-04	3.705588e-03	5.404729e-03
513           	9.627068e-04	3.710297e-03	5.406093e-03
514           	9.526176e-04	3.715051e-03	5.434340e-03
515           	9.646434e-04	3.719850e-03	5.433008e-03
516           	9.581578e-04	3.724695e-03	5.444484e-03
517           	1.016508e-03	3.729093e-03	5.433910e-03
518           	9.793384e-04	3.733753e-03	5.425625e-03
519           	9.272051e-04	3.738490e-03	5.399566e-03
520           	8.858927e-04	3.743276e-03	5.406136e-03
521           	8.717860e-04	3.748111e-03	5.388998e-03
522           	8.575774e-04	3.752996e-03	5.402340e-03
523           	8.508354e-04	3.757928e-03	5.387958e-03
524           	7.401171e-04	3.762908e-03	5.401957e-03
525           	7.863802e-04	3.767937e-03	5.417150e-03
526           	8.371942e-04	3.773016e-03	5.463522e-03
527           	8.701537e-04	3.778144e-03	5.453236e-03
528           	8.917417e-04	3.783324e-03	5.468694e-03
529           	8.963451e-04	3.788554e-03	5.441398e-03
530           	8.928361e-04	3.793837e-03	5.448417e-03
531           	8.845100e-04	3.799173e-03	5.419086e-03
532           	8.652369e-04	3.804562e-03	5.430981e-03
533           	8.561593e-04	3.810005e-03	5.403792e-03
534           	8.432764e-04	3.815503e-03	5.419540e-03
535           	8.331367e-04	3.821056e-03	5.393261e-03
536           	8.298968e-04	3.826640e-03	5.411916e-03
537           	8.285876e-04	3.831998e-03	5.385725e-03
538           	8.276568e-04	3.837453e-03	5.406656e-03
539           	8.178289e-04	3.842965e-03	5.380104e-03
540           	7.264076e-04	3.848532e-03	5.401772e-03
541           	7.652030e-04	3.854154e-03	5.404377e-03
542           	7.990140e-04	3.859831e-03	5.463443e-03
543           	8.288552e-04	3.865565e-03	5.456789e-03
544           	8.903933e-04	3.871331e-03	5.483076e-03
545           	9.165987e-04	3.877138e-03	5.445577e-03
546           	8.978394e-04	3.882983e-03	5.460061e-03
547           	8.991972e-04	3.888885e-03	5.411556e-03
548           	9.201025e-04	3.894844e-03	5.430420e-03
549           	9.227283e-04	3.900864e-03	5.387005e-03
550           	9.402417e-04	3.906942e-03	5.396303e-03
551           	9.418507e-04	3.913082e-03	5.344978e-03
552           	8.383567e-04	3.919282e-03	5.368224e-03
553           	8.196324e-04	3.925343e-03	5.356420e-03