/*--------------------------------*- C++ -*----------------------------------*\
  =========                 |
  \\      /  F ield         | OpenFOAM: The Open Source CFD Toolbox
   \\    /   O peration     | Website:  https://openfoam.org
    \\  /    A nd           | Version:  10
     \\/     M anipulation  |
\*---------------------------------------------------------------------------*/
FoamFile
{
    format      ascii;
    class       volScalarField;
    location    "7500";
    object      nut;
}
// * * * * * * * * * * * * * * * * * * * * * * * * * * * * * * * * * * * * * //

dimensions      [0 2 -1 0 0 0 0];

internalField   nonuniform List<scalar> 
400
(
1.29905e-17
1.29785e-17
1.29745e-17
1.29801e-17
2.27811e-15
2.27602e-15
2.27533e-15
2.27631e-15
4.79606e-14
4.79165e-14
4.79018e-14
4.79225e-14
3.71222e-13
3.7088e-13
3.70766e-13
3.70926e-13
1.69838e-12
1.69681e-12
1.69629e-12
1.69703e-12
5.67047e-12
5.66521e-12
5.66347e-12
5.66595e-12
1.53856e-11
1.53713e-11
1.53666e-11
1.53733e-11
3.60739e-11
3.60401e-11
3.60291e-11
3.60452e-11
7.59351e-11
7.58634e-11
7.58404e-11
7.58749e-11
1.47215e-10
1.47074e-10
1.4703e-10
1.47099e-10
2.67683e-10
2.67425e-10
2.67345e-10
2.67473e-10
4.62827e-10
4.62373e-10
4.62237e-10
4.62465e-10
7.6925e-10
7.68471e-10
7.68247e-10
7.68639e-10
1.24001e-09
1.23869e-09
1.23833e-09
1.23899e-09
1.95295e-09
1.95074e-09
1.95018e-09
1.95124e-09
3.02365e-09
3.01993e-09
3.01908e-09
3.02077e-09
4.62539e-09
4.61908e-09
4.61779e-09
4.62044e-09
7.02005e-09
7.00927e-09
7.00732e-09
7.01147e-09
1.06062e-08
1.05876e-08
1.05846e-08
1.05912e-08
1.59939e-08
1.59616e-08
1.59571e-08
1.59675e-08
2.41229e-08
2.40664e-08
2.40594e-08
2.40764e-08
3.64471e-08
3.63485e-08
3.63374e-08
3.63656e-08
5.52272e-08
5.50549e-08
5.50363e-08
5.50849e-08
8.39865e-08
8.36861e-08
8.36578e-08
8.37401e-08
1.28214e-07
1.27699e-07
1.27652e-07
1.27793e-07
1.96413e-07
1.95548e-07
1.95461e-07
1.95709e-07
3.01558e-07
3.00157e-07
2.99973e-07
3.00426e-07
4.42698e-07
4.42559e-07
4.42434e-07
4.4253e-07
4.89805e-07
4.89685e-07
4.89551e-07
4.89649e-07
5.37788e-07
5.37692e-07
5.3755e-07
5.37649e-07
5.86367e-07
5.86296e-07
5.86148e-07
5.86247e-07
6.3527e-07
6.35226e-07
6.35074e-07
6.3517e-07
6.84236e-07
6.84221e-07
6.84068e-07
6.84157e-07
7.33013e-07
7.3303e-07
7.32875e-07
7.32957e-07
7.81355e-07
7.81408e-07
7.81252e-07
7.81323e-07
8.29342e-07
8.29425e-07
8.29263e-07
8.29329e-07
8.77337e-07
8.77444e-07
8.77271e-07
8.77337e-07
9.25614e-07
9.25738e-07
9.25553e-07
9.25624e-07
9.74375e-07
9.7451e-07
9.74313e-07
9.74392e-07
1.02377e-06
1.02391e-06
1.0237e-06
1.02379e-06
1.0739e-06
1.07404e-06
1.07382e-06
1.07392e-06
1.12484e-06
1.12498e-06
1.12475e-06
1.12487e-06
1.17664e-06
1.17678e-06
1.17653e-06
1.17667e-06
1.22934e-06
1.22947e-06
1.2292e-06
1.22937e-06
1.28294e-06
1.28307e-06
1.28278e-06
1.28297e-06
1.33746e-06
1.33758e-06
1.33727e-06
1.33749e-06
1.39289e-06
1.39299e-06
1.39266e-06
1.39292e-06
1.44923e-06
1.44931e-06
1.44895e-06
1.44925e-06
1.50644e-06
1.5065e-06
1.50611e-06
1.50647e-06
1.56451e-06
1.56454e-06
1.56412e-06
1.56453e-06
1.62341e-06
1.62339e-06
1.62293e-06
1.62342e-06
1.68306e-06
1.68302e-06
1.68251e-06
1.68307e-06
1.74343e-06
1.74336e-06
1.74279e-06
1.74345e-06
1.80445e-06
1.80436e-06
1.80372e-06
1.80447e-06
1.86605e-06
1.86592e-06
1.86522e-06
1.86608e-06
1.92814e-06
1.92797e-06
1.92719e-06
1.92818e-06
1.9906e-06
1.9904e-06
1.98953e-06
1.99066e-06
2.05333e-06
2.05309e-06
2.05212e-06
2.0534e-06
2.11617e-06
2.11588e-06
2.11482e-06
2.11625e-06
2.17896e-06
2.17862e-06
2.17745e-06
2.17906e-06
2.2415e-06
2.24111e-06
2.23984e-06
2.24164e-06
2.30359e-06
2.30314e-06
2.30176e-06
2.30375e-06
2.36496e-06
2.36446e-06
2.36297e-06
2.36516e-06
2.42533e-06
2.42477e-06
2.42317e-06
2.42558e-06
2.48436e-06
2.48375e-06
2.48205e-06
2.48467e-06
2.5417e-06
2.54104e-06
2.53924e-06
2.54208e-06
2.59691e-06
2.59622e-06
2.59432e-06
2.59738e-06
2.64954e-06
2.64882e-06
2.64685e-06
2.65011e-06
2.69907e-06
2.69832e-06
2.69629e-06
2.69974e-06
2.74492e-06
2.74416e-06
2.74207e-06
2.74568e-06
2.78645e-06
2.7857e-06
2.78356e-06
2.7873e-06
2.82295e-06
2.82222e-06
2.82004e-06
2.82387e-06
2.85363e-06
2.85293e-06
2.85072e-06
2.85457e-06
2.87756e-06
2.87692e-06
2.87468e-06
2.87847e-06
2.89367e-06
2.89311e-06
2.89083e-06
2.89446e-06
2.90058e-06
2.90012e-06
2.89776e-06
2.90112e-06
2.89645e-06
2.89608e-06
2.89357e-06
2.89653e-06
2.87942e-06
2.87912e-06
2.87644e-06
2.87909e-06
2.84875e-06
2.8485e-06
2.84561e-06
2.84803e-06
2.80371e-06
2.80349e-06
2.80036e-06
2.80261e-06
2.74363e-06
2.74341e-06
2.73999e-06
2.74214e-06
2.66774e-06
2.66749e-06
2.66373e-06
2.66583e-06
2.57548e-06
2.57516e-06
2.57105e-06
2.57313e-06
2.22814e-06
2.20054e-06
2.1555e-06
2.20347e-06
1.40631e-06
1.39251e-06
1.36659e-06
1.392e-06
9.26195e-07
9.19506e-07
9.03672e-07
9.17769e-07
6.27621e-07
6.24872e-07
6.15063e-07
6.22808e-07
4.35778e-07
4.35379e-07
4.29321e-07
4.3342e-07
3.11545e-07
3.11332e-07
3.07814e-07
3.0986e-07
2.29768e-07
2.29695e-07
2.27626e-07
2.28576e-07
1.75048e-07
1.75072e-07
1.73773e-07
1.7422e-07
1.36821e-07
1.36893e-07
1.35948e-07
1.36227e-07
1.08685e-07
1.08775e-07
1.08011e-07
1.08261e-07
8.75935e-08
8.76929e-08
8.70566e-08
8.73149e-08
7.19191e-08
7.20189e-08
7.14798e-08
7.1754e-08
6.0443e-08
6.05352e-08
6.00709e-08
6.036e-08
5.22889e-08
5.23698e-08
5.1963e-08
5.22627e-08
4.68288e-08
4.68979e-08
4.65338e-08
4.68406e-08
4.36485e-08
4.3708e-08
4.33721e-08
4.36835e-08
4.25035e-08
4.25564e-08
4.22326e-08
4.25482e-08
)
;

boundaryField
{
    inlet
    {
        type            cyclic;
    }
    outlet
    {
        type            cyclic;
    }
    fixedWalls-bottom
    {
        type            nutkWallFunction;
        Cmu             0.09;
        kappa           0.41;
        E               9.8;
        value           uniform 0;
    }
    fixedWalls-top
    {
        type            symmetry;
    }
    frontAndBack
    {
        type            empty;
    }
}


// ************************************************************************* //
