/*--------------------------------*- C++ -*----------------------------------*\
  =========                 |
  \\      /  F ield         | OpenFOAM: The Open Source CFD Toolbox
   \\    /   O peration     | Website:  https://openfoam.org
    \\  /    A nd           | Version:  10
     \\/     M anipulation  |
\*---------------------------------------------------------------------------*/
FoamFile
{
    format      ascii;
    class       volScalarField;
    location    "7500";
    object      omega;
}
// * * * * * * * * * * * * * * * * * * * * * * * * * * * * * * * * * * * * * //

dimensions      [0 0 -1 0 0 0 0];

internalField   nonuniform List<scalar> 
400
(
214069
214069
214069
214069
36620.2
36620
36620
36620
12318.6
12318.5
12318.5
12318.5
5786.16
5786.14
5786.14
5786.13
3272.39
3272.39
3272.39
3272.38
2075.71
2075.71
2075.71
2075.7
1421.76
1421.77
1421.77
1421.75
1028.45
1028.47
1028.46
1028.44
774.604
774.619
774.616
774.592
601.518
601.535
601.531
601.504
478.046
478.066
478.062
478.032
386.459
386.483
386.478
386.446
316.116
316.146
316.141
316.107
260.392
260.432
260.426
260.392
215.071
215.12
215.115
215.081
177.435
177.496
177.491
177.458
145.733
145.804
145.8
145.769
118.826
118.907
118.903
118.875
95.9629
96.052
96.0492
96.0226
76.6221
76.7163
76.7144
76.6894
60.4061
60.502
60.5011
60.4775
46.9772
47.0712
47.0713
47.049
36.0202
36.1093
36.1105
36.0891
27.2274
27.3089
27.3099
27.2906
20.2959
20.367
20.3684
20.3512
14.9327
14.9918
14.9941
14.9788
10.8625
10.9089
10.9125
10.8986
7.83338
7.86827
7.87327
7.85999
5.60586
5.63149
5.63755
5.62522
3.98181
4.0003
4.00662
3.99557
2.8127
2.82592
2.83184
2.8223
1.98147
1.99091
1.99602
1.9881
1.39696
1.40376
1.40786
1.40152
0.989625
0.994634
0.997672
0.992813
0.707508
0.711332
0.713312
0.709807
0.514642
0.517727
0.518681
0.516373
0.384493
0.387124
0.387156
0.385883
0.297833
0.299989
0.299643
0.299005
0.240993
0.242765
0.24228
0.241982
0.204369
0.205826
0.205307
0.205186
0.181294
0.182511
0.182005
0.18197
0.167225
0.168266
0.167795
0.167795
0.159099
0.160019
0.159592
0.159599
0.154874
0.155719
0.155335
0.155347
0.153212
0.154016
0.153678
0.153688
0.153243
0.154027
0.153751
0.153747
0.154405
0.155185
0.154956
0.154967
0.156346
0.157122
0.156945
0.156989
0.158843
0.159609
0.15953
0.159581
0.161764
0.162495
0.162509
0.162628
0.165031
0.165684
0.165814
0.166048
0.1686
0.169179
0.169393
0.169797
0.172452
0.172947
0.173262
0.173845
0.176581
0.176989
0.177403
0.17819
0.180991
0.181313
0.181822
0.182835
0.18569
0.185938
0.186527
0.187788
0.19069
0.190892
0.19153
0.193061
0.196005
0.196172
0.19685
0.198666
0.201646
0.201786
0.202496
0.204618
0.207625
0.207742
0.208478
0.210928
0.213947
0.214046
0.2148
0.217602
0.22061
0.220696
0.221461
0.224639
0.227601
0.227681
0.228451
0.232029
0.234889
0.234979
0.235745
0.239748
0.242419
0.242551
0.243306
0.247756
0.250096
0.250337
0.251079
0.255997
0.25776
0.258273
0.258992
0.264393
0.265627
0.266181
0.266955
0.272854
0.273444
0.274036
0.274884
0.281291
0.281155
0.281816
0.282733
0.289646
0.288822
0.28958
0.290549
0.297968
0.296698
0.297595
0.29861
0.306534
0.305451
0.306571
0.307637
0.316053
0.316535
0.318021
0.319163
0.328016
0.332724
0.334765
0.336103
0.345249
0.359771
0.362569
0.364381
0.373444
0.405518
0.409068
0.412218
0.419961
0.480178
0.483707
0.489791
0.493936
0.59171
0.598216
0.608546
0.605243
0.750723
0.755772
0.774054
0.758497
0.929161
0.934054
0.959601
0.934868
1.22897
1.23815
1.27376
1.23625
1.90589
1.9224
1.97032
1.91787
2.9318
2.96805
3.02459
2.96125
4.17717
4.21784
4.28933
4.21447
5.64379
5.68408
5.77142
5.68709
7.33724
7.36907
7.46998
7.38196
9.22259
9.23137
9.34031
9.25689
11.1643
11.1737
11.2755
11.2053
13.0086
13.0165
13.105
13.0535
14.5943
14.5988
14.6752
14.6387
15.9031
15.9043
15.9801
15.9466
17.0289
17.0273
17.111
17.0697
17.9992
17.9943
18.0869
18.0316
18.7723
18.7645
18.8649
18.7923
19.3201
19.3109
19.417
19.3258
19.6277
19.6188
19.7277
19.6193
19.7052
19.6979
19.8066
19.6847
19.5842
19.5792
19.6855
19.5553
19.3163
19.3136
19.4168
19.2842
)
;

boundaryField
{
    inlet
    {
        type            cyclic;
    }
    outlet
    {
        type            cyclic;
    }
    fixedWalls-bottom
    {
        beta1           0.075;
        blended         0;
        type            omegaWallFunction;
        value           uniform 214069;
    }
    fixedWalls-top
    {
        type            symmetry;
    }
    frontAndBack
    {
        type            empty;
    }
}


// ************************************************************************* //
