/*--------------------------------*- C++ -*----------------------------------*\
  =========                 |
  \\      /  F ield         | OpenFOAM: The Open Source CFD Toolbox
   \\    /   O peration     | Website:  https://openfoam.org
    \\  /    A nd           | Version:  10
     \\/     M anipulation  |
\*---------------------------------------------------------------------------*/
FoamFile
{
    format      ascii;
    class       volScalarField;
    location    "3767";
    object      nut;
}
// * * * * * * * * * * * * * * * * * * * * * * * * * * * * * * * * * * * * * //

dimensions      [0 2 -1 0 0 0 0];

internalField   nonuniform List<scalar> 
400
(
3.34425e-11
3.34528e-11
3.34865e-11
3.34861e-11
5.86323e-09
5.86503e-09
5.87095e-09
5.87087e-09
1.22929e-07
1.22967e-07
1.23091e-07
1.23089e-07
9.3594e-07
9.36227e-07
9.37168e-07
9.37151e-07
4.10589e-06
4.10718e-06
4.1113e-06
4.11119e-06
1.26302e-05
1.26347e-05
1.26474e-05
1.26469e-05
3.00412e-05
3.00551e-05
3.00854e-05
3.00835e-05
5.87144e-05
5.8752e-05
5.88104e-05
5.88053e-05
9.8812e-05
9.88957e-05
9.89908e-05
9.89803e-05
0.000148807
0.000148961
0.000149096
0.000149078
0.000206695
0.000206933
0.000207106
0.000207081
0.000270409
0.000270482
0.000270676
0.00027069
0.000335202
0.000335251
0.000335459
0.000335484
0.000404549
0.000404592
0.000404808
0.000404836
0.000478695
0.000478734
0.000478949
0.000478976
0.000557475
0.000557509
0.000557718
0.000557735
0.000640681
0.000640716
0.000640912
0.00064091
0.000728108
0.000728149
0.000728331
0.000728299
0.00081949
0.000819542
0.000819709
0.000819634
0.000914399
0.000914465
0.00091462
0.000914491
0.00101273
0.00101281
0.00101295
0.00101276
0.00111419
0.00111429
0.00111442
0.00111417
0.00121841
0.00121854
0.00121866
0.00121835
0.001325
0.00132515
0.00132526
0.0013249
0.0014335
0.00143369
0.00143378
0.00143339
0.00154347
0.00154368
0.00154376
0.00154334
0.0016544
0.00165463
0.0016547
0.00165428
0.00176581
0.00176605
0.00176612
0.0017657
0.00187722
0.00187747
0.00187752
0.00187712
0.00198816
0.0019884
0.00198845
0.00198807
0.00209818
0.00209842
0.00209845
0.00209811
0.0022069
0.00220711
0.00220713
0.00220683
0.00231395
0.00231415
0.00231415
0.0023139
0.00241906
0.00241922
0.0024192
0.00241901
0.00252199
0.00252211
0.00252207
0.00252195
0.00262261
0.00262268
0.00262263
0.00262258
0.00272082
0.00272085
0.00272081
0.00272083
0.00281664
0.00281664
0.00281665
0.0028167
0.00291014
0.00291016
0.00291026
0.00291026
0.00300144
0.00300157
0.0030018
0.0030016
0.00309068
0.00309104
0.00309138
0.0030908
0.00317784
0.00317854
0.00317893
0.00317774
0.00326247
0.00326351
0.00326382
0.00326191
0.00334303
0.00334418
0.00334426
0.00334194
0.00341569
0.00341626
0.00341613
0.00341481
0.00347215
0.00347082
0.00347099
0.00347428
0.00352126
0.00351993
0.00352014
0.0035238
0.00356636
0.00356502
0.00356526
0.00356931
0.00360748
0.00360611
0.00360639
0.00361083
0.00364464
0.00364325
0.00364357
0.00364838
0.00367791
0.0036765
0.00367684
0.00368201
0.00370734
0.0037059
0.00370624
0.00371174
0.00373297
0.00373154
0.00373185
0.00373765
0.00375486
0.00375344
0.00375373
0.00375977
0.00377312
0.00377167
0.00377196
0.00377819
0.0037878
0.0037863
0.00378661
0.00379298
0.00379892
0.00379743
0.00379771
0.00380423
0.00380656
0.0038051
0.00380534
0.00381202
0.00381084
0.00380939
0.00380958
0.00381645
0.00381182
0.00381036
0.00381051
0.00381758
0.00380958
0.0038081
0.0038082
0.00381549
0.00380417
0.00380269
0.00380272
0.00381023
0.00379563
0.00379424
0.00379417
0.00380187
0.00378411
0.00378273
0.00378262
0.00379047
0.0037696
0.00376824
0.00376811
0.00377609
0.00375212
0.00375082
0.00375069
0.00375877
0.00373161
0.00373053
0.00373036
0.00373853
0.00370812
0.00370719
0.00370704
0.00371535
0.0036815
0.00368072
0.00368063
0.00368906
0.00365164
0.00365101
0.00365096
0.00365951
0.00361867
0.00361819
0.00361817
0.00362679
0.00358277
0.00358243
0.0035824
0.00359106
0.00354388
0.00354366
0.0035436
0.00355232
0.00350193
0.0035018
0.00350168
0.0035105
0.00345684
0.00345676
0.00345655
0.00346551
0.0034085
0.0034084
0.0034081
0.00341725
0.00335678
0.0033566
0.00335624
0.00336562
0.00330164
0.00330126
0.00330091
0.00331056
0.00324319
0.00324242
0.00324215
0.00325215
0.00318164
0.00318021
0.00318009
0.00319049
0.00311684
0.00311519
0.00311512
0.00312551
0.00304893
0.00304745
0.00304729
0.0030573
0.00297799
0.00297699
0.00297665
0.00298603
0.00290442
0.00290343
0.0029032
0.00291208
0.00282843
0.00282707
0.00282732
0.00283567
0.00275
0.00274907
0.00274913
0.00275726
0.0026698
0.00266967
0.00266901
0.00267741
0.00258869
0.00258856
0.0025882
0.00259642
0.00250733
0.00250676
0.00250676
0.00251509
0.0024264
0.00242548
0.00242566
0.00243409
0.00234681
0.00234614
0.00234593
0.00235425
0.00226993
0.00227034
0.0022686
0.00227682
0.00219765
0.00219825
0.0021953
0.00220335
0.00213128
0.00213163
0.00212745
0.00213562
0.00207082
0.00207159
0.00206694
0.0020754
0.00201903
0.00201993
0.00201518
0.00202455
0.00197758
0.00197811
0.00197348
0.00198484
0.00194757
0.00194729
0.00194303
0.00195766
0.00192943
0.00192863
0.00192487
0.00194332
0.00192437
0.00192213
0.00191926
0.00193813
)
;

boundaryField
{
    inlet
    {
        type            cyclic;
    }
    outlet
    {
        type            cyclic;
    }
    fixedWalls-bottom
    {
        type            nutkWallFunction;
        Cmu             0.09;
        kappa           0.41;
        E               9.8;
        value           uniform 0;
    }
    fixedWalls-top
    {
        type            symmetry;
    }
    frontAndBack
    {
        type            empty;
    }
}


// ************************************************************************* //
