/*--------------------------------*- C++ -*----------------------------------*\
  =========                 |
  \\      /  F ield         | OpenFOAM: The Open Source CFD Toolbox
   \\    /   O peration     | Website:  https://openfoam.org
    \\  /    A nd           | Version:  10
     \\/     M anipulation  |
\*---------------------------------------------------------------------------*/
FoamFile
{
    format      ascii;
    class       volScalarField;
    location    "3767";
    object      omega;
}
// * * * * * * * * * * * * * * * * * * * * * * * * * * * * * * * * * * * * * //

dimensions      [0 0 -1 0 0 0 0];

internalField   nonuniform List<scalar> 
400
(
5726.03
5726.03
5726.03
5726.03
979.853
979.853
979.853
979.853
330.741
330.742
330.742
330.742
157.255
157.257
157.258
157.258
91.4375
91.4394
91.4393
91.4399
60.8492
60.8496
60.8486
60.8495
44.5997
44.597
44.5948
44.596
35.0215
35.0144
35.0112
35.0127
28.8391
28.8274
28.8237
28.8254
24.5201
24.5051
24.5012
24.503
21.3032
21.2864
21.2828
21.2846
18.7879
18.7711
18.7681
18.7696
16.7487
16.7332
16.7308
16.7322
15.0478
15.0343
15.0325
15.0336
13.5973
13.5866
13.585
13.586
12.3409
12.333
12.3319
12.3328
11.2412
11.2352
11.2351
11.2365
10.2717
10.2671
10.2671
10.2696
9.4124
9.4082
9.4086
9.4121
8.64666
8.64379
8.64434
8.64867
7.96334
7.96159
7.96229
7.96729
7.35276
7.35181
7.35269
7.35818
6.80687
6.80625
6.8074
6.81318
6.31846
6.31808
6.31947
6.32533
5.88147
5.88128
5.88281
5.88859
5.49052
5.49051
5.49206
5.49764
5.1408
5.1409
5.14244
5.1477
4.82794
4.82812
4.82959
4.83444
4.54798
4.5482
4.54958
4.55396
4.29731
4.29754
4.29881
4.30267
4.07263
4.07285
4.07401
4.07733
3.87096
3.87116
3.8722
3.87498
3.68959
3.68979
3.69071
3.69292
3.52611
3.52636
3.52719
3.52872
3.37835
3.37864
3.37955
3.38019
3.24439
3.24463
3.24568
3.24547
3.12236
3.12262
3.12367
3.12306
3.01088
3.01127
3.01223
3.01135
2.90876
2.90935
2.91008
2.90903
2.81484
2.81573
2.81616
2.815
2.72832
2.72941
2.72952
2.72822
2.64831
2.64939
2.64937
2.6479
2.57406
2.57507
2.57497
2.57334
2.50493
2.50588
2.50572
2.50394
2.4404
2.44129
2.44109
2.43916
2.38001
2.38086
2.38063
2.37854
2.32336
2.32417
2.32392
2.32169
2.27011
2.27088
2.27061
2.26825
2.21993
2.22068
2.22039
2.2179
2.17254
2.17327
2.17296
2.17035
2.12768
2.1284
2.12808
2.12536
2.08512
2.08581
2.08549
2.08269
2.04464
2.04531
2.045
2.04213
2.00606
2.00669
2.0064
2.00349
1.96917
1.9698
1.9695
1.96658
1.93382
1.93446
1.93415
1.93123
1.89989
1.90051
1.9002
1.89728
1.86723
1.86782
1.86753
1.8646
1.83569
1.83627
1.836
1.83304
1.80518
1.80575
1.8055
1.80249
1.77557
1.77614
1.77591
1.77286
1.74678
1.74735
1.74714
1.74404
1.71874
1.71926
1.7191
1.71595
1.69132
1.69184
1.69169
1.68852
1.6645
1.665
1.66486
1.66168
1.63821
1.63868
1.63854
1.63535
1.61244
1.61282
1.61271
1.6095
1.58715
1.58746
1.58734
1.5841
1.56235
1.5626
1.56246
1.55919
1.53807
1.53825
1.53809
1.5348
1.51419
1.51432
1.51415
1.51085
1.49063
1.4907
1.49055
1.48725
1.46739
1.46741
1.46727
1.46396
1.44445
1.44444
1.44433
1.44098
1.42182
1.4218
1.42173
1.41833
1.39954
1.39951
1.39949
1.39601
1.3776
1.37762
1.37762
1.37405
1.35603
1.35612
1.35612
1.35243
1.33474
1.335
1.33497
1.33112
1.31364
1.31417
1.31407
1.31005
1.29279
1.29341
1.29329
1.28926
1.27214
1.27269
1.27261
1.26871
1.25168
1.25203
1.25203
1.24835
1.23127
1.23163
1.23158
1.22807
1.2109
1.21141
1.21117
1.20783
1.19065
1.19099
1.19083
1.18754
1.17038
1.17039
1.17055
1.16709
1.1499
1.14992
1.14995
1.14651
1.12916
1.12938
1.12926
1.12572
1.10818
1.10855
1.10837
1.10472
1.08698
1.08724
1.08724
1.08359
1.06549
1.06525
1.06597
1.06231
1.04353
1.04321
1.04451
1.04088
1.02139
1.0212
1.02309
1.01934
1.00015
0.99976
1.00188
0.997943
0.979741
0.979304
0.981474
0.977072
0.96079
0.960531
0.962632
0.957278
0.944231
0.944354
0.946258
0.939385
0.931252
0.931602
0.933241
0.924637
0.92244
0.923462
0.924658
0.915945
)
;

boundaryField
{
    inlet
    {
        type            cyclic;
    }
    outlet
    {
        type            cyclic;
    }
    fixedWalls-bottom
    {
        beta1           0.075;
        blended         0;
        type            omegaWallFunction;
        value           uniform 5726.03;
    }
    fixedWalls-top
    {
        type            symmetry;
    }
    frontAndBack
    {
        type            empty;
    }
}


// ************************************************************************* //
