/*--------------------------------*- C++ -*----------------------------------*\
  =========                 |
  \\      /  F ield         | OpenFOAM: The Open Source CFD Toolbox
   \\    /   O peration     | Website:  https://openfoam.org
    \\  /    A nd           | Version:  10
     \\/     M anipulation  |
\*---------------------------------------------------------------------------*/
FoamFile
{
    format      ascii;
    class       volVectorField;
    location    "3767";
    object      U;
}
// * * * * * * * * * * * * * * * * * * * * * * * * * * * * * * * * * * * * * //

dimensions      [0 1 -1 0 0 0 0];

internalField   nonuniform List<vector> 
400
(
(0.0243472 1.56183e-09 0)
(0.0243469 -3.67833e-10 0)
(0.0243484 -1.54238e-09 0)
(0.0243494 3.67287e-10 0)
(0.0731587 2.41593e-08 0)
(0.0731579 -1.10437e-08 0)
(0.0731627 -2.41169e-08 0)
(0.0731655 1.1042e-08 0)
(0.122418 7.11158e-08 0)
(0.122417 -3.57689e-08 0)
(0.122425 -7.10734e-08 0)
(0.12243 3.57654e-08 0)
(0.172072 1.44494e-07 0)
(0.172071 -7.78805e-08 0)
(0.172083 -1.44453e-07 0)
(0.172089 7.78753e-08 0)
(0.221922 2.44332e-07 0)
(0.221921 -1.40648e-07 0)
(0.221937 -2.44291e-07 0)
(0.221944 1.40641e-07 0)
(0.271468 3.69016e-07 0)
(0.271469 -2.27038e-07 0)
(0.271488 -3.68973e-07 0)
(0.271496 2.2703e-07 0)
(0.31985 5.12905e-07 0)
(0.319852 -3.36893e-07 0)
(0.319873 -5.12863e-07 0)
(0.319881 3.36883e-07 0)
(0.366017 6.6509e-07 0)
(0.366021 -4.63042e-07 0)
(0.366042 -6.65048e-07 0)
(0.36605 4.63031e-07 0)
(0.409107 8.11387e-07 0)
(0.40911 -5.88755e-07 0)
(0.40913 -8.11346e-07 0)
(0.409136 5.88743e-07 0)
(0.44869 9.38608e-07 0)
(0.44869 -6.88581e-07 0)
(0.448706 -9.38567e-07 0)
(0.448712 6.88566e-07 0)
(0.484756 1.03786e-06 0)
(0.48475 -7.37527e-07 0)
(0.484761 -1.03781e-06 0)
(0.484766 7.37513e-07 0)
(0.517555 1.10205e-06 0)
(0.517548 -7.55549e-07 0)
(0.517554 -1.102e-06 0)
(0.517557 7.55532e-07 0)
(0.547517 1.13294e-06 0)
(0.547513 -7.44357e-07 0)
(0.547516 -1.1329e-06 0)
(0.547516 7.4434e-07 0)
(0.575026 1.13169e-06 0)
(0.575025 -7.36429e-07 0)
(0.575026 -1.13165e-06 0)
(0.575023 7.36411e-07 0)
(0.600338 1.10406e-06 0)
(0.60034 -7.36288e-07 0)
(0.600339 -1.10402e-06 0)
(0.600333 7.36269e-07 0)
(0.623681 1.05662e-06 0)
(0.623685 -7.44102e-07 0)
(0.623683 -1.05657e-06 0)
(0.623675 7.44083e-07 0)
(0.645262 9.95545e-07 0)
(0.645267 -7.60211e-07 0)
(0.645266 -9.95499e-07 0)
(0.645256 7.60191e-07 0)
(0.665268 9.26384e-07 0)
(0.665274 -7.84449e-07 0)
(0.665272 -9.26338e-07 0)
(0.665262 7.84428e-07 0)
(0.683863 8.53911e-07 0)
(0.68387 -8.1568e-07 0)
(0.683869 -8.53865e-07 0)
(0.683858 8.15658e-07 0)
(0.701198 7.8205e-07 0)
(0.701205 -8.51999e-07 0)
(0.701205 -7.82003e-07 0)
(0.701194 8.51977e-07 0)
(0.717404 7.13834e-07 0)
(0.717411 -8.91274e-07 0)
(0.717411 -7.13787e-07 0)
(0.717401 8.91251e-07 0)
(0.732597 6.51481e-07 0)
(0.732604 -9.31415e-07 0)
(0.732603 -6.51434e-07 0)
(0.732594 9.31391e-07 0)
(0.746878 5.96387e-07 0)
(0.746884 -9.70533e-07 0)
(0.746884 -5.9634e-07 0)
(0.746876 9.70508e-07 0)
(0.760339 5.49165e-07 0)
(0.760345 -1.00695e-06 0)
(0.760344 -5.49117e-07 0)
(0.760338 1.00693e-06 0)
(0.773061 5.09728e-07 0)
(0.773066 -1.03929e-06 0)
(0.773066 -5.0968e-07 0)
(0.773061 1.03926e-06 0)
(0.785117 4.77427e-07 0)
(0.785121 -1.06654e-06 0)
(0.785121 -4.77378e-07 0)
(0.785117 1.06651e-06 0)
(0.796572 4.51212e-07 0)
(0.796576 -1.08815e-06 0)
(0.796575 -4.51163e-07 0)
(0.796572 1.08812e-06 0)
(0.807484 4.29825e-07 0)
(0.807487 -1.10402e-06 0)
(0.807486 -4.29776e-07 0)
(0.807484 1.10399e-06 0)
(0.817905 4.11982e-07 0)
(0.817908 -1.11439e-06 0)
(0.817906 -4.11933e-07 0)
(0.817905 1.11436e-06 0)
(0.827883 3.96504e-07 0)
(0.827884 -1.11974e-06 0)
(0.827883 -3.96454e-07 0)
(0.827882 1.11971e-06 0)
(0.837458 3.82397e-07 0)
(0.837459 -1.12075e-06 0)
(0.837458 -3.82346e-07 0)
(0.837457 1.12072e-06 0)
(0.846669 3.68859e-07 0)
(0.84667 -1.11817e-06 0)
(0.846668 -3.68808e-07 0)
(0.846668 1.11814e-06 0)
(0.855549 3.55261e-07 0)
(0.85555 -1.11287e-06 0)
(0.855548 -3.5521e-07 0)
(0.855548 1.11284e-06 0)
(0.864128 3.41068e-07 0)
(0.864129 -1.10579e-06 0)
(0.864127 -3.41016e-07 0)
(0.864127 1.10576e-06 0)
(0.872433 3.25741e-07 0)
(0.872434 -1.09794e-06 0)
(0.872432 -3.25689e-07 0)
(0.872432 1.0979e-06 0)
(0.880489 3.08626e-07 0)
(0.88049 -1.09026e-06 0)
(0.880488 -3.08574e-07 0)
(0.880487 1.09023e-06 0)
(0.888315 2.88854e-07 0)
(0.888316 -1.08342e-06 0)
(0.888314 -2.88802e-07 0)
(0.888313 1.08339e-06 0)
(0.895931 2.65338e-07 0)
(0.895933 -1.07738e-06 0)
(0.89593 -2.65286e-07 0)
(0.895929 1.07735e-06 0)
(0.903354 2.37028e-07 0)
(0.903355 -1.07085e-06 0)
(0.903352 -2.36975e-07 0)
(0.903351 1.07081e-06 0)
(0.910596 2.03602e-07 0)
(0.910598 -1.06068e-06 0)
(0.910595 -2.03549e-07 0)
(0.910594 1.06064e-06 0)
(0.917672 1.66786e-07 0)
(0.917673 -1.04145e-06 0)
(0.917669 -1.66731e-07 0)
(0.917669 1.04141e-06 0)
(0.924591 1.3246e-07 0)
(0.924591 -1.00573e-06 0)
(0.924586 -1.32406e-07 0)
(0.924588 1.00569e-06 0)
(0.931365 1.12833e-07 0)
(0.931363 -9.45465e-07 0)
(0.931356 -1.12781e-07 0)
(0.931362 9.45437e-07 0)
(0.938004 1.24943e-07 0)
(0.937999 -8.5546e-07 0)
(0.937992 -1.2489e-07 0)
(0.938002 8.55435e-07 0)
(0.944522 1.77326e-07 0)
(0.944515 -7.39001e-07 0)
(0.944507 -1.77266e-07 0)
(0.944523 7.38942e-07 0)
(0.950942 2.44122e-07 0)
(0.950935 -6.11945e-07 0)
(0.950928 -2.44063e-07 0)
(0.950944 6.11889e-07 0)
(0.957286 3.1945e-07 0)
(0.95728 -4.84213e-07 0)
(0.957272 -3.19398e-07 0)
(0.957287 4.84187e-07 0)
(0.963561 3.71395e-07 0)
(0.963557 -3.6999e-07 0)
(0.963549 -3.7134e-07 0)
(0.963561 3.69953e-07 0)
(0.969775 4.05311e-07 0)
(0.969771 -2.6845e-07 0)
(0.969764 -4.05255e-07 0)
(0.969774 2.68409e-07 0)
(0.975931 4.26337e-07 0)
(0.975928 -1.7862e-07 0)
(0.975922 -4.2628e-07 0)
(0.97593 1.78578e-07 0)
(0.982036 4.36809e-07 0)
(0.982034 -1.00199e-07 0)
(0.982028 -4.36752e-07 0)
(0.982035 1.00157e-07 0)
(0.988093 4.3813e-07 0)
(0.988092 -3.2911e-08 0)
(0.988086 -4.38072e-07 0)
(0.988091 3.28694e-08 0)
(0.994106 4.31795e-07 0)
(0.994105 2.37651e-08 0)
(0.994101 -4.31738e-07 0)
(0.994105 -2.38072e-08 0)
(1.00008 4.19423e-07 0)
(1.00008 7.06824e-08 0)
(1.00007 -4.19365e-07 0)
(1.00008 -7.07251e-08 0)
(1.00602 4.02665e-07 0)
(1.00602 1.08823e-07 0)
(1.00601 -4.02608e-07 0)
(1.00601 -1.08866e-07 0)
(1.01192 3.83129e-07 0)
(1.01192 1.39271e-07 0)
(1.01192 -3.83071e-07 0)
(1.01192 -1.39315e-07 0)
(1.01779 3.62375e-07 0)
(1.01779 1.63395e-07 0)
(1.01779 -3.62317e-07 0)
(1.01779 -1.63439e-07 0)
(1.02363 3.41821e-07 0)
(1.02363 1.82388e-07 0)
(1.02363 -3.41762e-07 0)
(1.02363 -1.82432e-07 0)
(1.02944 3.2262e-07 0)
(1.02944 1.9753e-07 0)
(1.02944 -3.22561e-07 0)
(1.02944 -1.97575e-07 0)
(1.03523 3.05471e-07 0)
(1.03523 2.09671e-07 0)
(1.03523 -3.05412e-07 0)
(1.03523 -2.09717e-07 0)
(1.041 2.90581e-07 0)
(1.041 2.19151e-07 0)
(1.04099 -2.90522e-07 0)
(1.04099 -2.19197e-07 0)
(1.04673 2.77961e-07 0)
(1.04674 2.25989e-07 0)
(1.04673 -2.77902e-07 0)
(1.04673 -2.26036e-07 0)
(1.05245 2.67843e-07 0)
(1.05245 2.30201e-07 0)
(1.05245 -2.67784e-07 0)
(1.05245 -2.30248e-07 0)
(1.05815 2.60436e-07 0)
(1.05815 2.31464e-07 0)
(1.05815 -2.60376e-07 0)
(1.05815 -2.31512e-07 0)
(1.06382 2.56061e-07 0)
(1.06382 2.29678e-07 0)
(1.06382 -2.56001e-07 0)
(1.06382 -2.29727e-07 0)
(1.06947 2.5478e-07 0)
(1.06947 2.2455e-07 0)
(1.06947 -2.5472e-07 0)
(1.06947 -2.24599e-07 0)
(1.07509 2.56912e-07 0)
(1.0751 2.16652e-07 0)
(1.0751 -2.56852e-07 0)
(1.0751 -2.16701e-07 0)
(1.0807 2.61577e-07 0)
(1.0807 2.06677e-07 0)
(1.0807 -2.61516e-07 0)
(1.0807 -2.06727e-07 0)
(1.08628 2.67869e-07 0)
(1.08628 1.96108e-07 0)
(1.08628 -2.67808e-07 0)
(1.08628 -1.96158e-07 0)
(1.09183 2.73637e-07 0)
(1.09183 1.86138e-07 0)
(1.09184 -2.73576e-07 0)
(1.09184 -1.86189e-07 0)
(1.09736 2.77065e-07 0)
(1.09737 1.7802e-07 0)
(1.09737 -2.77003e-07 0)
(1.09737 -1.78071e-07 0)
(1.10287 2.7709e-07 0)
(1.10287 1.72993e-07 0)
(1.10287 -2.77028e-07 0)
(1.10287 -1.73045e-07 0)
(1.10834 2.73588e-07 0)
(1.10834 1.72209e-07 0)
(1.10834 -2.73526e-07 0)
(1.10834 -1.72261e-07 0)
(1.11379 2.67238e-07 0)
(1.11379 1.76578e-07 0)
(1.11379 -2.67176e-07 0)
(1.11379 -1.76631e-07 0)
(1.1192 2.5911e-07 0)
(1.1192 1.86554e-07 0)
(1.1192 -2.59047e-07 0)
(1.1192 -1.86607e-07 0)
(1.12458 2.50586e-07 0)
(1.12458 2.01996e-07 0)
(1.12458 -2.50523e-07 0)
(1.12458 -2.02051e-07 0)
(1.12992 2.4309e-07 0)
(1.12992 2.2223e-07 0)
(1.12992 -2.43026e-07 0)
(1.12992 -2.22286e-07 0)
(1.13522 2.37372e-07 0)
(1.13522 2.45873e-07 0)
(1.13522 -2.37308e-07 0)
(1.13522 -2.45929e-07 0)
(1.14047 2.32149e-07 0)
(1.14047 2.69503e-07 0)
(1.14047 -2.32085e-07 0)
(1.14047 -2.69559e-07 0)
(1.14568 2.2272e-07 0)
(1.14568 2.8621e-07 0)
(1.14568 -2.22656e-07 0)
(1.14568 -2.86266e-07 0)
(1.15083 2.06292e-07 0)
(1.15083 2.90508e-07 0)
(1.15083 -2.06228e-07 0)
(1.15083 -2.90563e-07 0)
(1.15592 1.8216e-07 0)
(1.15593 2.78836e-07 0)
(1.15593 -1.82096e-07 0)
(1.15592 -2.78893e-07 0)
(1.16095 1.56861e-07 0)
(1.16095 2.55605e-07 0)
(1.16095 -1.56798e-07 0)
(1.16095 -2.55662e-07 0)
(1.1659 1.35612e-07 0)
(1.1659 2.26274e-07 0)
(1.16591 -1.35549e-07 0)
(1.1659 -2.26331e-07 0)
(1.17077 1.20753e-07 0)
(1.17077 1.96601e-07 0)
(1.17077 -1.2069e-07 0)
(1.17077 -1.96659e-07 0)
(1.17554 1.1298e-07 0)
(1.17555 1.69615e-07 0)
(1.17555 -1.12917e-07 0)
(1.17554 -1.69674e-07 0)
(1.18021 1.11291e-07 0)
(1.18021 1.45708e-07 0)
(1.18021 -1.11227e-07 0)
(1.18021 -1.45768e-07 0)
(1.18475 1.13743e-07 0)
(1.18475 1.28743e-07 0)
(1.18475 -1.13678e-07 0)
(1.18475 -1.28801e-07 0)
(1.18915 1.14534e-07 0)
(1.18915 1.14948e-07 0)
(1.18915 -1.14468e-07 0)
(1.18915 -1.15006e-07 0)
(1.19338 1.01025e-07 0)
(1.19338 1.01531e-07 0)
(1.19338 -1.00958e-07 0)
(1.19338 -1.01589e-07 0)
(1.19743 6.37632e-08 0)
(1.19743 8.58918e-08 0)
(1.19743 -6.36954e-08 0)
(1.19742 -8.59518e-08 0)
(1.20125 8.27057e-09 0)
(1.20125 7.04304e-08 0)
(1.20125 -8.20666e-09 0)
(1.20125 -7.04943e-08 0)
(1.20482 -5.25582e-08 0)
(1.20482 5.96812e-08 0)
(1.20482 5.26191e-08 0)
(1.20482 -5.97466e-08 0)
(1.2081 -9.41867e-08 0)
(1.2081 5.32514e-08 0)
(1.2081 9.42514e-08 0)
(1.2081 -5.33185e-08 0)
(1.21104 -1.04861e-07 0)
(1.21104 5.61735e-08 0)
(1.21104 1.04924e-07 0)
(1.21104 -5.62361e-08 0)
(1.2136 -8.32542e-08 0)
(1.2136 6.40095e-08 0)
(1.2136 8.33112e-08 0)
(1.2136 -6.40736e-08 0)
(1.21574 -4.26984e-08 0)
(1.21573 7.56852e-08 0)
(1.21574 4.27514e-08 0)
(1.21574 -7.57485e-08 0)
(1.21739 -3.21722e-09 0)
(1.21739 8.04374e-08 0)
(1.2174 3.26198e-09 0)
(1.21739 -8.04785e-08 0)
(1.21853 1.80188e-08 0)
(1.21853 6.65462e-08 0)
(1.21854 -1.79889e-08 0)
(1.21853 -6.65505e-08 0)
(1.21912 1.16791e-08 0)
(1.21912 2.60112e-08 0)
(1.21912 -1.16719e-08 0)
(1.21912 -2.60092e-08 0)
)
;

boundaryField
{
    inlet
    {
        type            cyclic;
    }
    outlet
    {
        type            cyclic;
    }
    fixedWalls-bottom
    {
        type            noSlip;
    }
    fixedWalls-top
    {
        type            symmetry;
    }
    frontAndBack
    {
        type            empty;
    }
}


// ************************************************************************* //
