/*--------------------------------*- C++ -*----------------------------------*\
  =========                 |
  \\      /  F ield         | OpenFOAM: The Open Source CFD Toolbox
   \\    /   O peration     | Website:  https://openfoam.org
    \\  /    A nd           | Version:  10
     \\/     M anipulation  |
\*---------------------------------------------------------------------------*/
FoamFile
{
    format      ascii;
    class       volScalarField;
    location    "288";
    object      k;
}
// * * * * * * * * * * * * * * * * * * * * * * * * * * * * * * * * * * * * * //

dimensions      [0 2 -2 0 0 0 0];

internalField   nonuniform List<scalar> 
200
(
4.62201e-07
4.62347e-07
4.62447e-07
4.6236e-07
1.39626e-05
1.3967e-05
1.397e-05
1.39674e-05
0.000100836
0.000100868
0.000100889
0.00010087
0.00037089
0.000371009
0.000371087
0.000371015
0.000942002
0.000942305
0.000942492
0.000942298
0.00185482
0.00185538
0.0018557
0.00185529
0.00300219
0.00300299
0.00300339
0.00300263
0.00419381
0.00419477
0.00419514
0.00419391
0.00528323
0.00528428
0.0052845
0.00528284
0.00621246
0.00621358
0.0062136
0.00621151
0.00698116
0.00698223
0.00698211
0.00697964
0.00759867
0.00759965
0.00759938
0.00759669
0.00808186
0.00808268
0.0080823
0.00807958
0.00844963
0.0084502
0.00844987
0.00844724
0.00871994
0.00872034
0.00872002
0.00871756
0.00890862
0.00890892
0.00890857
0.00890637
0.00902899
0.00902923
0.00902886
0.00902697
0.00909207
0.00909217
0.00909186
0.00909036
0.00910687
0.0091068
0.00910656
0.00910555
0.00908078
0.00908057
0.00908027
0.0090799
0.00901985
0.00901954
0.00901898
0.00901945
0.00892907
0.00892867
0.00892789
0.00892892
0.00881265
0.00881219
0.00881121
0.00881275
0.00867431
0.00867385
0.0086727
0.00867464
0.0085172
0.00851681
0.00851552
0.00851765
0.00834366
0.00834339
0.008342
0.0083441
0.0081549
0.00815481
0.00815334
0.0081556
0.00795204
0.00795202
0.00795056
0.00795293
0.00773599
0.00773574
0.00773453
0.00773681
0.00750724
0.00750698
0.00750571
0.00750797
0.00726646
0.00726622
0.00726484
0.00726708
0.00701425
0.00701404
0.00701256
0.00701481
0.00675125
0.00675102
0.00674951
0.00675179
0.00647807
0.0064777
0.00647635
0.00647871
0.00619542
0.00619495
0.00619366
0.00619624
0.00590423
0.0059037
0.00590236
0.00590503
0.00560528
0.00560448
0.00560328
0.00560594
0.00529907
0.00529844
0.00529739
0.00529997
0.00498735
0.00498682
0.00498585
0.00498831
0.00467138
0.00467122
0.00467018
0.00467243
0.00435321
0.00435331
0.00435227
0.0043543
0.0040353
0.0040355
0.0040346
0.00403641
0.00372092
0.00372113
0.00372039
0.003722
0.00341436
0.00341454
0.00341392
0.00341531
0.00312128
0.0031215
0.00312085
0.00312223
0.00284895
0.00284924
0.00284852
0.00284991
0.00260672
0.00260703
0.0026063
0.00260755
0.0024062
0.00240653
0.00240572
0.0024069
0.00226068
0.0022608
0.00225996
0.00226103
0.00218256
0.00218177
0.00218223
0.0021831
)
;

boundaryField
{
    inlet
    {
        type            cyclic;
    }
    outlet
    {
        type            cyclic;
    }
    fixedWalls-bottom
    {
        type            kqRWallFunction;
        value           nonuniform List<scalar> 4(4.62201e-07 4.62347e-07 4.62447e-07 4.6236e-07);
    }
    fixedWalls-top
    {
        type            symmetry;
    }
    frontAndBack
    {
        type            empty;
    }
}


// ************************************************************************* //
