/*--------------------------------*- C++ -*----------------------------------*\
  =========                 |
  \\      /  F ield         | OpenFOAM: The Open Source CFD Toolbox
   \\    /   O peration     | Website:  https://openfoam.org
    \\  /    A nd           | Version:  10
     \\/     M anipulation  |
\*---------------------------------------------------------------------------*/
FoamFile
{
    format      ascii;
    class       volScalarField;
    location    "288";
    object      nut;
}
// * * * * * * * * * * * * * * * * * * * * * * * * * * * * * * * * * * * * * //

dimensions      [0 2 -1 0 0 0 0];

internalField   nonuniform List<scalar> 
200
(
1.9382e-10
1.93882e-10
1.93924e-10
1.93887e-10
3.44796e-08
3.44905e-08
3.4498e-08
3.44915e-08
7.43035e-07
7.43275e-07
7.43434e-07
7.43293e-07
5.71141e-06
5.71341e-06
5.71461e-06
5.71351e-06
2.43028e-05
2.43127e-05
2.43176e-05
2.43128e-05
6.92422e-05
6.92729e-05
6.9286e-05
6.92723e-05
0.000147902
0.000147963
0.000147987
0.000147953
0.000258117
0.000258213
0.000258242
0.000258141
0.000389392
0.000389473
0.000389499
0.000389372
0.000527533
0.000527634
0.000527647
0.000527458
0.000679377
0.000679497
0.000679497
0.000679229
0.000843719
0.000843851
0.000843836
0.000843491
0.00101825
0.00101838
0.00101835
0.00101795
0.00120042
0.00120053
0.0012005
0.00120007
0.00138713
0.00138721
0.00138718
0.00138674
0.00157573
0.0015758
0.00157576
0.00157531
0.00176391
0.00176396
0.00176391
0.00176349
0.00194934
0.00194935
0.00194931
0.00194895
0.00212993
0.00212987
0.00212985
0.00212963
0.00230395
0.00230383
0.00230381
0.0023038
0.00247014
0.00246999
0.00246993
0.00247017
0.00262771
0.00262763
0.00262758
0.0026278
0.00277643
0.00277654
0.0027765
0.00277627
0.00291634
0.00291661
0.00291649
0.00291527
0.00304634
0.00304658
0.00304612
0.0030439
0.00316027
0.00316121
0.0031601
0.00315958
0.00324097
0.00324582
0.00324386
0.0032556
0.00331139
0.00331548
0.00331487
0.0033263
0.00337323
0.00337286
0.00337811
0.00338515
0.00342173
0.0034251
0.00342634
0.00343407
0.00345934
0.00346348
0.00346438
0.00347246
0.00348607
0.00349069
0.00349129
0.0035002
0.00350161
0.00350677
0.00350665
0.00351738
0.00350512
0.00351192
0.00350978
0.00352453
0.00349526
0.003506
0.00349988
0.00352152
0.00347965
0.00348721
0.00348342
0.00350527
0.00345646
0.00345368
0.00345518
0.00347726
0.00341592
0.00341351
0.00341462
0.00343745
0.00336208
0.00336262
0.00336192
0.00338565
0.00329187
0.00330473
0.0032967
0.00332168
0.00321517
0.00322902
0.00321983
0.00324566
0.00312693
0.00314146
0.00313222
0.00315791
0.003028
0.00304326
0.00303331
0.00305944
0.00291987
0.00293617
0.00292459
0.00295199
0.00280537
0.00282323
0.00280938
0.00283874
0.00268897
0.00270883
0.00269269
0.00272417
0.00257739
0.00259931
0.00258125
0.00261471
0.00248046
0.00250284
0.00248529
0.00251923
0.00241051
0.00242725
0.00242316
0.00244795
0.00237785
0.00237227
0.00240491
0.00241927
)
;

boundaryField
{
    inlet
    {
        type            cyclic;
    }
    outlet
    {
        type            cyclic;
    }
    fixedWalls-bottom
    {
        type            nutkWallFunction;
        Cmu             0.09;
        kappa           0.41;
        E               9.8;
        value           uniform 0;
    }
    fixedWalls-top
    {
        type            symmetry;
    }
    frontAndBack
    {
        type            empty;
    }
}


// ************************************************************************* //
