/*--------------------------------*- C++ -*----------------------------------*\
  =========                 |
  \\      /  F ield         | OpenFOAM: The Open Source CFD Toolbox
   \\    /   O peration     | Website:  https://openfoam.org
    \\  /    A nd           | Version:  10
     \\/     M anipulation  |
\*---------------------------------------------------------------------------*/
FoamFile
{
    format      ascii;
    class       volScalarField;
    location    "288";
    object      omega;
}
// * * * * * * * * * * * * * * * * * * * * * * * * * * * * * * * * * * * * * //

dimensions      [0 0 -1 0 0 0 0];

internalField   nonuniform List<scalar> 
200
(
2384.69
2384.69
2384.69
2384.69
404.951
404.951
404.951
404.951
135.708
135.707
135.707
135.707
64.9385
64.9366
64.9367
64.9365
38.761
38.7577
38.7576
38.7572
26.7874
26.7837
26.7833
26.7825
20.2985
20.2956
20.295
20.2945
16.2477
16.2454
16.245
16.2466
13.4465
13.4459
13.446
13.4491
11.3719
11.3724
11.3733
11.3778
9.763
9.7645
9.76577
9.7716
8.47983
8.48165
8.48362
8.49003
7.43907
7.44041
7.44451
7.44946
6.58592
6.5896
6.59093
6.59573
5.88143
5.88497
5.88614
5.89049
5.29633
5.29901
5.30072
5.3042
4.80781
4.80859
4.81196
4.81425
4.39775
4.39853
4.40083
4.40238
4.05147
4.05232
4.05396
4.05398
3.75684
3.75768
3.75825
3.75716
3.50456
3.50413
3.50481
3.50205
3.28586
3.28438
3.28504
3.2808
3.0944
3.09201
3.09275
3.08717
2.9256
2.9225
2.92338
2.91669
2.77556
2.77196
2.77302
2.76547
2.64017
2.63632
2.6375
2.62934
2.51619
2.5124
2.51347
2.5051
2.40142
2.39845
2.39846
2.39092
2.29335
2.29352
2.2896
2.28551
2.19399
2.19176
2.1906
2.18632
2.10053
2.09795
2.09701
2.09277
2.01208
2.00936
2.00859
2.00412
1.92804
1.92514
1.92478
1.91955
1.84818
1.84449
1.84523
1.83818
1.77252
1.76695
1.76968
1.75954
1.69679
1.69296
1.69442
1.68462
1.62168
1.62276
1.6217
1.61217
1.55129
1.5522
1.55138
1.54183
1.48341
1.48302
1.48304
1.47337
1.41906
1.41349
1.41662
1.40665
1.35396
1.34818
1.35171
1.34158
1.2905
1.28459
1.28809
1.27819
1.22884
1.22275
1.22651
1.21656
1.16936
1.16292
1.16732
1.15695
1.11261
1.10565
1.11087
1.09986
1.05949
1.05184
1.05787
1.04616
1.01138
1.00297
1.00971
0.997262
0.970064
0.96152
0.967986
0.955411
0.937845
0.931425
0.93265
0.923642
0.91787
0.919696
0.907406
0.902378
)
;

boundaryField
{
    inlet
    {
        type            cyclic;
    }
    outlet
    {
        type            cyclic;
    }
    fixedWalls-bottom
    {
        beta1           0.075;
        blended         0;
        type            omegaWallFunction;
        value           nonuniform List<scalar> 4(2384.69 2384.69 2384.69 2384.69);
    }
    fixedWalls-top
    {
        type            symmetry;
    }
    frontAndBack
    {
        type            empty;
    }
}


// ************************************************************************* //
