/*--------------------------------*- C++ -*----------------------------------*\
  =========                 |
  \\      /  F ield         | OpenFOAM: The Open Source CFD Toolbox
   \\    /   O peration     | Website:  https://openfoam.org
    \\  /    A nd           | Version:  10
     \\/     M anipulation  |
\*---------------------------------------------------------------------------*/
FoamFile
{
    format      ascii;
    class       volScalarField;
    location    "288";
    object      p;
}
// * * * * * * * * * * * * * * * * * * * * * * * * * * * * * * * * * * * * * //

dimensions      [0 2 -2 0 0 0 0];

internalField   nonuniform List<scalar> 
200
(
-6.28709e-11
-1.034e-06
-1.27798e-06
-2.5737e-07
-8.41237e-10
-1.03552e-06
-1.27782e-06
-2.55855e-07
-8.31478e-10
-1.03735e-06
-1.27787e-06
-2.5401e-07
-1.58176e-10
-1.03935e-06
-1.27846e-06
-2.51985e-07
1.20815e-09
-1.04093e-06
-1.27979e-06
-2.50367e-07
3.52269e-09
-1.04065e-06
-1.28212e-06
-2.50624e-07
7.88454e-09
-1.03691e-06
-1.28652e-06
-2.54326e-07
1.77148e-08
-1.02995e-06
-1.29639e-06
-2.61258e-07
3.41956e-08
-1.02335e-06
-1.31293e-06
-2.67812e-07
5.75247e-08
-1.01929e-06
-1.33631e-06
-2.71829e-07
8.94296e-08
-1.01648e-06
-1.36829e-06
-2.74582e-07
1.30167e-07
-1.015e-06
-1.40909e-06
-2.76008e-07
1.78049e-07
-1.0155e-06
-1.45706e-06
-2.75448e-07
2.30536e-07
-1.01864e-06
-1.50963e-06
-2.72248e-07
2.85796e-07
-1.02448e-06
-1.56499e-06
-2.66333e-07
3.43889e-07
-1.03315e-06
-1.62317e-06
-2.57598e-07
4.04537e-07
-1.04441e-06
-1.68393e-06
-2.46262e-07
4.66176e-07
-1.05842e-06
-1.74566e-06
-2.32178e-07
5.26034e-07
-1.07546e-06
-1.80564e-06
-2.15053e-07
5.81696e-07
-1.09631e-06
-1.86141e-06
-1.94121e-07
6.32127e-07
-1.12089e-06
-1.91198e-06
-1.69453e-07
6.81579e-07
-1.14641e-06
-1.96156e-06
-1.43853e-07
7.43998e-07
-1.16844e-06
-2.02413e-06
-1.21707e-07
8.45213e-07
-1.18854e-06
-2.12547e-06
-1.01495e-07
1.004e-06
-1.21661e-06
-2.28441e-06
-7.33168e-08
1.16267e-06
-1.25034e-06
-2.44326e-06
-3.95777e-08
1.1343e-06
-1.24539e-06
-2.41516e-06
-4.45415e-08
9.10814e-07
-1.18798e-06
-2.1918e-06
-1.01902e-07
6.49534e-07
-1.10135e-06
-1.93058e-06
-1.88383e-07
4.39576e-07
-1.00295e-06
-1.72072e-06
-2.86639e-07
2.93107e-07
-9.04858e-07
-1.57443e-06
-3.84643e-07
1.53059e-07
-8.05084e-07
-1.43459e-06
-4.84382e-07
-2.9614e-09
-7.09501e-07
-1.27878e-06
-5.79987e-07
-1.89865e-07
-6.23324e-07
-1.0921e-06
-6.66199e-07
-4.27914e-07
-5.42573e-07
-8.54225e-07
-7.47062e-07
-7.32034e-07
-4.80058e-07
-5.50287e-07
-8.09635e-07
-1.12521e-06
-5.00384e-07
-1.5723e-07
-7.89132e-07
-1.5754e-06
-5.95587e-07
2.92791e-07
-6.93367e-07
-2.0002e-06
-6.78625e-07
7.17519e-07
-6.09951e-07
-2.32903e-06
-6.81145e-07
1.04622e-06
-6.07409e-07
-2.5747e-06
-6.2298e-07
1.29181e-06
-6.65798e-07
-2.80239e-06
-5.61324e-07
1.51936e-06
-7.27548e-07
-3.02069e-06
-5.00294e-07
1.73761e-06
-7.8868e-07
-3.22173e-06
-4.48809e-07
1.93854e-06
-8.4015e-07
-3.40103e-06
-4.13185e-07
2.11779e-06
-8.7578e-07
-3.55829e-06
-3.90117e-07
2.27498e-06
-8.9881e-07
-3.69245e-06
-3.71842e-07
2.40908e-06
-9.17073e-07
-3.80546e-06
-3.4697e-07
2.52206e-06
-9.41926e-07
-3.91632e-06
-2.93779e-07
2.63304e-06
-9.95079e-07
-4.0427e-06
-2.31334e-07
2.75987e-06
-1.05752e-06
)
;

boundaryField
{
    inlet
    {
        type            cyclic;
    }
    outlet
    {
        type            cyclic;
    }
    fixedWalls-bottom
    {
        type            zeroGradient;
    }
    fixedWalls-top
    {
        type            symmetry;
    }
    frontAndBack
    {
        type            empty;
    }
}


// ************************************************************************* //
