/*--------------------------------*- C++ -*----------------------------------*\
  =========                 |
  \\      /  F ield         | OpenFOAM: The Open Source CFD Toolbox
   \\    /   O peration     | Website:  https://openfoam.org
    \\  /    A nd           | Version:  10
     \\/     M anipulation  |
\*---------------------------------------------------------------------------*/
FoamFile
{
    format      ascii;
    class       surfaceScalarField;
    location    "288";
    object      phi;
}
// * * * * * * * * * * * * * * * * * * * * * * * * * * * * * * * * * * * * * //

dimensions      [0 3 -1 0 0 0 0];

internalField   nonuniform List<scalar> 
346
(
0.00062981
-1.36171e-09
0.000629819
-1.09819e-08
0.000629815
3.54398e-09
1.08131e-08
0.00195008
-8.62284e-09
0.00195011
-4.57895e-08
0.00195011
1.09312e-08
4.52782e-08
0.00337005
-1.78463e-08
0.00337011
-1.09652e-07
0.0033701
2.02365e-08
1.08922e-07
0.00488947
-2.88381e-08
0.00488956
-2.04783e-07
0.00488955
3.1228e-08
2.03778e-07
0.00649279
-4.60819e-08
0.00649292
-3.33445e-07
0.0064929
4.857e-08
3.32345e-07
0.00813932
-7.89329e-08
0.00813947
-4.81916e-07
0.00813944
8.13189e-08
4.8062e-07
0.00977368
-1.39971e-07
0.00977383
-6.30005e-07
0.00977377
1.4241e-07
6.28692e-07
0.0113537
-2.19694e-07
0.0113539
-7.54379e-07
0.0113538
2.21989e-07
7.52935e-07
0.0128665
-3.11385e-07
0.0128666
-8.58766e-07
0.0128665
3.13726e-07
8.57346e-07
0.0143227
-4.09671e-07
0.0143228
-9.49461e-07
0.0143227
4.11864e-07
9.47956e-07
0.0157355
-5.03862e-07
0.0157356
-1.02364e-06
0.0157355
5.06111e-07
1.02218e-06
0.017114
-5.84509e-07
0.0171141
-1.078e-06
0.017114
5.86616e-07
1.07649e-06
0.0184672
-6.48269e-07
0.0184672
-1.11289e-06
0.0184672
6.5045e-07
1.11142e-06
0.0198037
-6.98312e-07
0.0198037
-1.13147e-06
0.0198037
7.00356e-07
1.12997e-06
0.0211318
-7.38797e-07
0.0211318
-1.13633e-06
0.0211317
7.40935e-07
1.13486e-06
0.0224588
-7.72341e-07
0.0224588
-1.13163e-06
0.0224588
7.74345e-07
1.13016e-06
0.0237916
-7.97606e-07
0.0237916
-1.11869e-06
0.0237916
7.99695e-07
1.11723e-06
0.025136
-8.18396e-07
0.025136
-1.10122e-06
0.025136
8.20354e-07
1.09977e-06
0.0264975
-8.40754e-07
0.0264974
-1.08142e-06
0.0264974
8.42798e-07
1.07996e-06
0.0278807
-8.77334e-07
0.0278807
-1.06313e-06
0.0278806
8.79254e-07
1.06171e-06
0.02929
-9.39177e-07
0.02929
-1.04407e-06
0.0292899
9.41132e-07
1.04261e-06
0.0307293
-1.02824e-06
0.0307292
-1.01289e-06
0.0307291
1.03008e-06
1.01149e-06
0.0322019
-1.11435e-06
0.0322019
-9.38583e-07
0.0322018
1.11619e-06
9.37133e-07
0.0337111
-1.11147e-06
0.0337109
-7.89174e-07
0.0337109
1.11322e-06
7.87798e-07
0.0352595
-8.737e-07
0.0352593
-5.68571e-07
0.0352595
8.7535e-07
5.67163e-07
0.0368503
-2.9362e-07
0.0368501
-3.36347e-07
0.0368506
2.95206e-07
3.35032e-07
0.0384879
3.03539e-07
0.0384876
-1.20879e-07
0.0384882
-3.02137e-07
1.19549e-07
0.0401763
6.01854e-07
0.0401761
4.93128e-08
0.0401764
-6.00481e-07
-5.05345e-08
0.0419179
6.18297e-07
0.0419178
1.52408e-07
0.0419178
-6.17217e-07
-1.5357e-07
0.0437148
4.88049e-07
0.0437147
2.11496e-07
0.0437146
-4.86953e-07
-2.12554e-07
0.0455689
3.7048e-07
0.0455689
2.60341e-07
0.0455688
-3.69763e-07
-2.61268e-07
0.0474825
2.9118e-07
0.0474824
3.47899e-07
0.0474823
-2.90396e-07
-3.48744e-07
0.0494571
2.55846e-07
0.0494569
4.97342e-07
0.0494569
-2.55496e-07
-4.97952e-07
0.0514944
2.63929e-07
0.0514942
7.10751e-07
0.0514942
-2.63463e-07
-7.11317e-07
0.053596
2.88689e-07
0.0535957
9.95691e-07
0.0535958
-2.88714e-07
-9.95898e-07
0.0557629
3.24695e-07
0.0557626
1.34324e-06
0.0557626
-3.24571e-07
-1.34345e-06
0.0579959
3.15814e-07
0.0579956
1.56272e-06
0.0579956
-3.16127e-07
-1.56254e-06
0.0602954
2.34226e-07
0.0602954
1.47904e-06
0.0602954
-2.34372e-07
-1.47891e-06
0.0626616
1.09639e-07
0.062662
1.14427e-06
0.0626618
-1.10128e-07
-1.14378e-06
0.0650943
4.02254e-08
0.0650946
7.90277e-07
0.0650945
-4.05523e-08
-7.89878e-07
0.067592
7.84444e-08
0.0675923
5.71955e-07
0.0675923
-7.88969e-08
-5.714e-07
0.0701527
1.21235e-07
0.0701529
4.42892e-07
0.0701529
-1.21559e-07
-4.42441e-07
0.0727729
1.24523e-07
0.0727729
3.8214e-07
0.0727729
-1.24778e-07
-3.81756e-07
0.0754471
9.74358e-08
0.0754472
3.52858e-07
0.0754471
-9.76268e-08
-3.5255e-07
0.078168
6.98218e-08
0.078168
3.25506e-07
0.078168
-6.99508e-08
-3.25289e-07
0.0809248
6.62363e-08
0.0809249
2.90607e-07
0.0809249
-6.63778e-08
-2.90401e-07
0.0837032
1.06701e-07
0.0837033
2.45579e-07
0.0837033
-1.06873e-07
-2.45372e-07
0.0864842
2.00049e-07
0.0864843
1.65705e-07
0.0864844
-2.00216e-07
-1.65525e-07
0.0892445
2.66215e-07
0.0892446
7.62815e-08
0.0892447
-2.66379e-07
-7.61169e-08
0.0919576
0.0919577
0.0919574
)
;

boundaryField
{
    inlet
    {
        type            cyclic;
        value           nonuniform List<scalar> 
50
(
-0.0919574
-0.0892446
-0.0864843
-0.0837033
-0.0809248
-0.078168
-0.0754471
-0.0727729
-0.0701528
-0.0675921
-0.0650942
-0.0626615
-0.0602953
-0.0579959
-0.055763
-0.0535961
-0.0514945
-0.0494571
-0.0474824
-0.0455688
-0.0437146
-0.0419179
-0.0401766
-0.0384885
-0.0368509
-0.0352597
-0.0337111
-0.0322019
-0.0307292
-0.0292899
-0.0278806
-0.0264974
-0.025136
-0.0237916
-0.0224588
-0.0211317
-0.0198037
-0.0184671
-0.0171139
-0.0157354
-0.0143226
-0.0128664
-0.0113537
-0.00977362
-0.00813929
-0.00649277
-0.00488945
-0.00337004
-0.00195007
-0.000629805
)
;
    }
    outlet
    {
        type            cyclic;
        value           nonuniform List<scalar> 
50
(
0.0919574
0.0892446
0.0864843
0.0837033
0.0809248
0.078168
0.0754471
0.0727729
0.0701528
0.0675921
0.0650942
0.0626615
0.0602953
0.0579959
0.055763
0.0535961
0.0514945
0.0494571
0.0474824
0.0455688
0.0437146
0.0419179
0.0401766
0.0384885
0.0368509
0.0352597
0.0337111
0.0322019
0.0307292
0.0292899
0.0278806
0.0264974
0.025136
0.0237916
0.0224588
0.0211317
0.0198037
0.0184671
0.0171139
0.0157354
0.0143226
0.0128664
0.0113537
0.00977362
0.00813929
0.00649277
0.00488945
0.00337004
0.00195007
0.000629805
)
;
    }
    fixedWalls-bottom
    {
        type            calculated;
        value           uniform 0;
    }
    fixedWalls-top
    {
        type            symmetry;
        value           uniform 0;
    }
    frontAndBack
    {
        type            empty;
        value           nonuniform List<scalar> 0();
    }
}


// ************************************************************************* //
