/*--------------------------------*- C++ -*----------------------------------*\
  =========                 |
  \\      /  F ield         | OpenFOAM: The Open Source CFD Toolbox
   \\    /   O peration     | Website:  https://openfoam.org
    \\  /    A nd           | Version:  10
     \\/     M anipulation  |
\*---------------------------------------------------------------------------*/
FoamFile
{
    format      ascii;
    class       volSymmTensorField;
    location    "288";
    object      R;
}
// * * * * * * * * * * * * * * * * * * * * * * * * * * * * * * * * * * * * * //

dimensions      [0 2 -2 0 0 0 0];

internalField   nonuniform List<symmTensor> 
200
(
(3.08134e-07 -1.43156e-09 -0 3.08134e-07 -0 3.08134e-07)
(3.08231e-07 -1.43205e-09 -0 3.08231e-07 -0 3.08231e-07)
(3.08298e-07 -1.43238e-09 -0 3.08298e-07 -0 3.08298e-07)
(3.0824e-07 -1.43208e-09 -0 3.0824e-07 -0 3.0824e-07)
(9.30838e-06 -2.52197e-07 -0 9.30838e-06 -0 9.30838e-06)
(9.31132e-06 -2.52283e-07 -0 9.31132e-06 -0 9.31132e-06)
(9.31333e-06 -2.52341e-07 -0 9.31333e-06 -0 9.31333e-06)
(9.31158e-06 -2.52289e-07 -0 9.31158e-06 -0 9.31158e-06)
(6.72238e-05 -5.36832e-06 -0 6.72238e-05 -0 6.72238e-05)
(6.72452e-05 -5.37018e-06 -0 6.72452e-05 -0 6.72452e-05)
(6.72597e-05 -5.37143e-06 -0 6.72597e-05 -0 6.72597e-05)
(6.72469e-05 -5.3703e-06 -0 6.72469e-05 -0 6.72469e-05)
(0.00024726 -4.03876e-05 -0 0.00024726 -0 0.00024726)
(0.000247339 -4.04027e-05 -0 0.00024734 -0 0.000247339)
(0.000247392 -4.0412e-05 -0 0.000247392 -0 0.000247392)
(0.000247344 -4.04032e-05 -0 0.000247343 -0 0.000247343)
(0.000628002 -0.000164581 -0 0.000628002 -0 0.000628002)
(0.000628202 -0.000164651 -0 0.000628204 -0 0.000628203)
(0.000628328 -0.000164687 -0 0.000628328 -0 0.000628328)
(0.000628199 -0.00016465 -0 0.000628198 -0 0.000628199)
(0.00123655 -0.000433932 -0 0.00123655 -0 0.00123655)
(0.00123692 -0.000434128 -0 0.00123692 -0 0.00123692)
(0.00123714 -0.00043421 -0 0.00123714 -0 0.00123714)
(0.00123686 -0.000434112 -0 0.00123686 -0 0.00123686)
(0.00200146 -0.000827119 -0 0.00200146 -0 0.00200146)
(0.00200199 -0.00082745 -0 0.002002 -0 0.00200199)
(0.00200226 -0.000827572 -0 0.00200226 -0 0.00200226)
(0.00200176 -0.000827368 -0 0.00200175 -0 0.00200175)
(0.00279587 -0.00125635 -0 0.00279588 -0 0.00279587)
(0.00279651 -0.00125679 -0 0.00279652 -0 0.00279651)
(0.00279677 -0.00125691 -0 0.00279676 -0 0.00279676)
(0.00279595 -0.00125642 -0 0.00279593 -0 0.00279594)
(0.00352215 -0.0016378 -0 0.00352216 -0 0.00352215)
(0.00352284 -0.00163813 -0 0.00352286 -0 0.00352285)
(0.00352301 -0.00163819 -0 0.00352299 -0 0.003523)
(0.0035219 -0.00163768 -0 0.00352189 -0 0.00352189)
(0.00414163 -0.00192586 -0 0.00414165 -0 0.00414164)
(0.00414238 -0.00192621 -0 0.00414239 -0 0.00414238)
(0.00414241 -0.00192622 -0 0.00414239 -0 0.0041424)
(0.00414102 -0.00192557 -0 0.004141 -0 0.00414101)
(0.0046541 -0.00216417 -0 0.00465412 -0 0.00465411)
(0.00465481 -0.0021645 -0 0.00465483 -0 0.00465482)
(0.00465475 -0.00216446 -0 0.00465473 -0 0.00465474)
(0.0046531 -0.00216369 -0 0.00465309 -0 0.0046531)
(0.00506577 -0.00235562 -0 0.00506579 -0 0.00506578)
(0.00506642 -0.00235592 -0 0.00506644 -0 0.00506643)
(0.00506627 -0.00235584 -0 0.00506624 -0 0.00506625)
(0.00506447 -0.00235501 -0 0.00506445 -0 0.00506446)
(0.00538789 -0.00250552 -0 0.00538791 -0 0.0053879)
(0.00538845 -0.00250577 -0 0.00538846 -0 0.00538845)
(0.00538821 -0.00250565 -0 0.00538819 -0 0.0053882)
(0.00538639 -0.00250481 -0 0.00538638 -0 0.00538639)
(0.00563308 -0.00261988 -0 0.0056331 -0 0.00563309)
(0.00563346 -0.00262006 -0 0.00563347 -0 0.00563346)
(0.00563325 -0.00261996 -0 0.00563323 -0 0.00563324)
(0.00563149 -0.00261915 -0 0.00563149 -0 0.00563149)
(0.00581329 -0.00270364 -0 0.0058133 -0 0.0058133)
(0.00581356 -0.00270376 -0 0.00581356 -0 0.00581356)
(0.00581335 -0.00270366 -0 0.00581334 -0 0.00581334)
(0.00581171 -0.00270291 -0 0.00581171 -0 0.00581171)
(0.00593907 -0.00276191 -0 0.00593909 -0 0.00593908)
(0.00593928 -0.00276201 -0 0.00593928 -0 0.00593928)
(0.00593906 -0.0027619 -0 0.00593904 -0 0.00593905)
(0.00593758 -0.00276122 -0 0.00593758 -0 0.00593758)
(0.00601932 -0.00279913 -0 0.00601933 -0 0.00601933)
(0.00601949 -0.0027992 -0 0.00601948 -0 0.00601949)
(0.00601925 -0.00279909 -0 0.00601923 -0 0.00601924)
(0.00601798 -0.00279851 -0 0.00601798 -0 0.00601798)
(0.00606137 -0.00281864 -0 0.00606138 -0 0.00606138)
(0.00606145 -0.00281867 -0 0.00606144 -0 0.00606144)
(0.00606125 -0.00281858 -0 0.00606123 -0 0.00606124)
(0.00606024 -0.00281811 -0 0.00606025 -0 0.00606024)
(0.00607124 -0.0028232 -0 0.00607125 -0 0.00607124)
(0.00607121 -0.00282318 -0 0.0060712 -0 0.0060712)
(0.00607104 -0.00282311 -0 0.00607103 -0 0.00607104)
(0.00607036 -0.0028228 -0 0.00607037 -0 0.00607036)
(0.00605384 -0.00281511 -0 0.00605386 -0 0.00605385)
(0.00605372 -0.00281504 -0 0.00605371 -0 0.00605371)
(0.00605352 -0.00281495 -0 0.0060535 -0 0.00605351)
(0.00605326 -0.00281483 -0 0.00605327 -0 0.00605327)
(0.00601322 -0.00279622 -0 0.00601325 -0 0.00601323)
(0.00601303 -0.00279612 -0 0.00601302 -0 0.00601303)
(0.00601267 -0.00279595 -0 0.00601263 -0 0.00601265)
(0.00601296 -0.00279609 -0 0.00601297 -0 0.00601296)
(0.00595269 -0.00276808 -0 0.00595274 -0 0.00595272)
(0.00595246 -0.00276796 -0 0.00595244 -0 0.00595245)
(0.00595196 -0.00276772 -0 0.0059519 -0 0.00595193)
(0.00595261 -0.00276803 -0 0.00595263 -0 0.00595262)
(0.00587507 -0.002732 -0 0.00587512 -0 0.0058751)
(0.00587482 -0.00273186 -0 0.00587477 -0 0.00587479)
(0.00587417 -0.00273155 -0 0.00587411 -0 0.00587414)
(0.00587515 -0.00273203 -0 0.00587519 -0 0.00587517)
(0.00578288 -0.00268914 -0 0.00578286 -0 0.00578287)
(0.00578262 -0.00268899 -0 0.00578252 -0 0.00578257)
(0.00578179 -0.00268864 -0 0.00578181 -0 0.0057818)
(0.00578305 -0.00268923 -0 0.00578314 -0 0.00578309)
(0.00567822 -0.00264046 -0 0.00567804 -0 0.00567814)
(0.00567794 -0.00264034 -0 0.0056778 -0 0.00567787)
(0.00567693 -0.00263994 -0 0.00567711 -0 0.00567701)
(0.00567836 -0.00264059 -0 0.0056785 -0 0.00567844)
(0.00556263 -0.00258626 -0 0.00556227 -0 0.00556243)
(0.00556234 -0.00258663 -0 0.00556218 -0 0.00556226)
(0.00556115 -0.0025862 -0 0.00556151 -0 0.00556135)
(0.00556265 -0.00258684 -0 0.00556281 -0 0.00556273)
(0.00543679 -0.00251704 -0 0.00543641 -0 0.00543659)
(0.00543661 -0.00252028 -0 0.00543646 -0 0.00543654)
(0.00543537 -0.00251961 -0 0.00543575 -0 0.00543557)
(0.00543699 -0.00252654 -0 0.00543714 -0 0.00543706)
(0.00530147 -0.00244773 -0 0.00530125 -0 0.00530137)
(0.00530141 -0.00245112 -0 0.00530129 -0 0.00530135)
(0.00530027 -0.00245082 -0 0.00530048 -0 0.00530037)
(0.0053019 -0.00245657 -0 0.00530201 -0 0.00530195)
(0.00515734 -0.002376 -0 0.00515731 -0 0.00515733)
(0.0051572 -0.002377 -0 0.00515713 -0 0.00515716)
(0.00515634 -0.00237991 -0 0.00515637 -0 0.00515635)
(0.00515784 -0.00238389 -0 0.00515791 -0 0.00515787)
(0.00500479 -0.00229906 -0 0.00500486 -0 0.00500483)
(0.00500467 -0.00230203 -0 0.00500464 -0 0.00500466)
(0.00500385 -0.00230239 -0 0.00500377 -0 0.00500381)
(0.00500529 -0.00230754 -0 0.00500533 -0 0.00500531)
(0.00484427 -0.00221862 -0 0.00484435 -0 0.0048443)
(0.00484416 -0.0022213 -0 0.00484413 -0 0.00484415)
(0.00484326 -0.00222176 -0 0.00484318 -0 0.00484323)
(0.0048447 -0.00222728 -0 0.00484474 -0 0.00484472)
(0.00467614 -0.00213438 -0 0.00467619 -0 0.00467617)
(0.00467606 -0.00213718 -0 0.004676 -0 0.00467603)
(0.00467506 -0.00213723 -0 0.00467501 -0 0.00467504)
(0.00467651 -0.00214331 -0 0.00467656 -0 0.00467654)
(0.00450082 -0.00204638 -0 0.00450084 -0 0.00450083)
(0.00450073 -0.0020493 -0 0.00450064 -0 0.00450068)
(0.00449968 -0.00204892 -0 0.00449966 -0 0.00449967)
(0.00450115 -0.00205581 -0 0.00450124 -0 0.0045012)
(0.00431872 -0.00195465 -0 0.00431871 -0 0.00431871)
(0.00431853 -0.00195781 -0 0.0043184 -0 0.00431847)
(0.00431757 -0.00195684 -0 0.00431757 -0 0.00431757)
(0.00431908 -0.00196503 -0 0.00431921 -0 0.00431914)
(0.00413029 -0.00185826 -0 0.00413027 -0 0.00413028)
(0.00413005 -0.00186276 -0 0.00412988 -0 0.00412997)
(0.0041291 -0.00186034 -0 0.00412912 -0 0.00412911)
(0.00413074 -0.00187108 -0 0.00413091 -0 0.00413082)
(0.00393616 -0.00176022 -0 0.00393615 -0 0.00393615)
(0.00393589 -0.00176365 -0 0.00393571 -0 0.0039358)
(0.0039349 -0.00176232 -0 0.00393491 -0 0.00393491)
(0.0039366 -0.00177268 -0 0.00393678 -0 0.00393669)
(0.00373685 -0.00165988 -0 0.00373686 -0 0.00373685)
(0.00373638 -0.00165968 -0 0.00373627 -0 0.00373632)
(0.00373552 -0.0016604 -0 0.00373551 -0 0.00373552)
(0.00373724 -0.00167069 -0 0.00373735 -0 0.0037373)
(0.00353269 -0.00155403 -0 0.00353273 -0 0.00353271)
(0.00353227 -0.00155441 -0 0.00353231 -0 0.00353229)
(0.00353162 -0.00155478 -0 0.00353157 -0 0.00353159)
(0.00353333 -0.00156502 -0 0.00353329 -0 0.00353331)
(0.00332487 -0.00144505 -0 0.00332493 -0 0.00332491)
(0.00332447 -0.0014458 -0 0.00332462 -0 0.00332455)
(0.00332393 -0.00144557 -0 0.00332388 -0 0.00332389)
(0.00332562 -0.00145572 -0 0.00332546 -0 0.00332553)
(0.00311424 -0.00133116 -0 0.00311426 -0 0.00311426)
(0.00311407 -0.00133574 -0 0.00311423 -0 0.00311415)
(0.00311347 -0.00133282 -0 0.00311344 -0 0.00311345)
(0.00311503 -0.00134293 -0 0.00311487 -0 0.00311495)
(0.00290214 -0.00121577 -0 0.00290214 -0 0.00290214)
(0.00290215 -0.00122031 -0 0.00290226 -0 0.0029022)
(0.00290151 -0.00121705 -0 0.00290151 -0 0.00290151)
(0.00290292 -0.00122681 -0 0.00290281 -0 0.00290287)
(0.0026902 -0.00109692 -0 0.00269019 -0 0.0026902)
(0.0026903 -0.00110178 -0 0.00269036 -0 0.00269033)
(0.00268973 -0.00109846 -0 0.00268974 -0 0.00268973)
(0.00269097 -0.00110747 -0 0.00269092 -0 0.00269094)
(0.00248061 -0.000975182 -0 0.00248062 -0 0.00248062)
(0.00248074 -0.000980042 -0 0.00248077 -0 0.00248076)
(0.00248026 -0.00097671 -0 0.00248026 -0 0.00248026)
(0.00248134 -0.000985123 -0 0.00248132 -0 0.00248133)
(0.00227623 -0.000850705 -0 0.00227625 -0 0.00227624)
(0.00227635 -0.000855425 -0 0.00227636 -0 0.00227636)
(0.00227595 -0.00085202 -0 0.00227594 -0 0.00227594)
(0.00227688 -0.000859977 -0 0.00227687 -0 0.00227688)
(0.00208084 -0.000723808 -0 0.00208086 -0 0.00208085)
(0.002081 -0.000728327 -0 0.002081 -0 0.002081)
(0.00208057 -0.000724841 -0 0.00208056 -0 0.00208056)
(0.00208149 -0.000732353 -0 0.00208148 -0 0.00208149)
(0.00189929 -0.0005949 -0 0.0018993 -0 0.0018993)
(0.00189949 -0.000599126 -0 0.0018995 -0 0.00189949)
(0.00189902 -0.000595738 -0 0.00189901 -0 0.00189901)
(0.00189994 -0.000602593 -0 0.00189993 -0 0.00189994)
(0.00173781 -0.000464498 -0 0.00173781 -0 0.00173781)
(0.00173802 -0.000468235 -0 0.00173803 -0 0.00173802)
(0.00173753 -0.000465236 -0 0.00173754 -0 0.00173753)
(0.00173837 -0.000471107 -0 0.00173836 -0 0.00173837)
(0.00160414 -0.000333144 -0 0.00160412 -0 0.00160414)
(0.00160435 -0.000336045 -0 0.00160436 -0 0.00160436)
(0.00160381 -0.00033383 -0 0.00160382 -0 0.00160381)
(0.00160461 -0.000338263 -0 0.00160459 -0 0.0016046)
(0.00150712 -0.000201015 -0 0.00150713 -0 0.00150712)
(0.00150719 -0.000202672 -0 0.00150721 -0 0.0015072)
(0.00150664 -0.000202062 -0 0.00150664 -0 0.00150664)
(0.00150736 -0.00020408 -0 0.00150734 -0 0.00150735)
(0.001455 -6.74351e-05 -0 0.00145507 -0 0.00145504)
(0.0014545 -6.75299e-05 -0 0.00145453 -0 0.00145451)
(0.00145485 -6.8189e-05 -0 0.00145479 -0 0.00145481)
(0.00145541 -6.85819e-05 -0 0.00145539 -0 0.0014554)
)
;

boundaryField
{
    inlet
    {
        type            cyclic;
    }
    outlet
    {
        type            cyclic;
    }
    fixedWalls-bottom
    {
        type            kqRWallFunction;
        value           nonuniform List<symmTensor> 4((3.08134e-07 -0 -0 3.08134e-07 -0 3.08134e-07) (3.08231e-07 -0 -0 3.08231e-07 -0 3.08231e-07) (3.08298e-07 -0 -0 3.08298e-07 -0 3.08298e-07) (3.0824e-07 -0 -0 3.0824e-07 -0 3.0824e-07));
    }
    fixedWalls-top
    {
        type            symmetry;
    }
    frontAndBack
    {
        type            empty;
    }
}


// ************************************************************************* //
