/*--------------------------------*- C++ -*----------------------------------*\
  =========                 |
  \\      /  F ield         | OpenFOAM: The Open Source CFD Toolbox
   \\    /   O peration     | Website:  https://openfoam.org
    \\  /    A nd           | Version:  10
     \\/     M anipulation  |
\*---------------------------------------------------------------------------*/
FoamFile
{
    format      ascii;
    class       volVectorField;
    location    "288";
    object      U;
}
// * * * * * * * * * * * * * * * * * * * * * * * * * * * * * * * * * * * * * //

dimensions      [0 1 -1 0 0 0 0];

internalField   nonuniform List<vector> 
200
(
(0.0341809 1.57296e-09 0)
(0.0341817 -1.28681e-09 0)
(0.0341821 1.145e-09 0)
(0.0341814 1.17176e-09 0)
(0.102882 -5.98627e-09 0)
(0.102885 -2.2951e-08 0)
(0.102886 7.15666e-09 0)
(0.102884 2.26477e-08 0)
(0.172837 -1.29663e-08 0)
(0.172841 -7.07883e-08 0)
(0.172844 1.57858e-08 0)
(0.17284 7.01633e-08 0)
(0.243768 -2.31896e-08 0)
(0.243773 -1.50932e-07 0)
(0.243777 2.54472e-08 0)
(0.243772 1.50042e-07 0)
(0.314673 -3.57818e-08 0)
(0.31468 -2.65423e-07 0)
(0.314685 3.8107e-08 0)
(0.314678 2.64347e-07 0)
(0.383468 -5.99471e-08 0)
(0.383476 -4.07006e-07 0)
(0.383482 6.23344e-08 0)
(0.383473 4.05794e-07 0)
(0.447623 -1.07595e-07 0)
(0.447632 -5.57569e-07 0)
(0.447637 1.10007e-07 0)
(0.447626 5.56256e-07 0)
(0.505484 -1.73826e-07 0)
(0.505492 -6.93352e-07 0)
(0.505495 1.76188e-07 0)
(0.505485 6.91967e-07 0)
(0.556857 -2.64684e-07 0)
(0.556864 -8.12722e-07 0)
(0.556866 2.67002e-07 0)
(0.556856 8.11289e-07 0)
(0.602587 -3.6072e-07 0)
(0.602593 -9.09185e-07 0)
(0.602595 3.62984e-07 0)
(0.602585 9.07721e-07 0)
(0.643562 -4.57996e-07 0)
(0.643567 -9.91372e-07 0)
(0.643568 4.60219e-07 0)
(0.643559 9.8989e-07 0)
(0.680417 -5.45989e-07 0)
(0.680421 -1.0558e-06 0)
(0.680421 5.48164e-07 0)
(0.680415 1.05432e-06 0)
(0.713735 -6.18337e-07 0)
(0.713738 -1.10033e-06 0)
(0.713738 6.20481e-07 0)
(0.713734 1.09884e-06 0)
(0.74404 -6.75809e-07 0)
(0.744042 -1.12624e-06 0)
(0.744041 6.77918e-07 0)
(0.744039 1.12476e-06 0)
(0.771789 -7.20833e-07 0)
(0.771791 -1.1371e-06 0)
(0.771789 7.22922e-07 0)
(0.771788 1.13562e-06 0)
(0.797376 -7.57131e-07 0)
(0.797377 -1.13646e-06 0)
(0.797375 7.59198e-07 0)
(0.797375 1.13499e-06 0)
(0.821132 -7.85543e-07 0)
(0.821133 -1.12683e-06 0)
(0.821131 7.87587e-07 0)
(0.821131 1.12536e-06 0)
(0.843333 -8.07448e-07 0)
(0.843334 -1.11067e-06 0)
(0.843332 8.09469e-07 0)
(0.843333 1.10922e-06 0)
(0.86421 -8.27221e-07 0)
(0.864212 -1.09108e-06 0)
(0.864209 8.29221e-07 0)
(0.86421 1.08963e-06 0)
(0.883958 -8.5491e-07 0)
(0.88396 -1.07177e-06 0)
(0.883956 8.56894e-07 0)
(0.883957 1.07033e-06 0)
(0.902735 -9.05387e-07 0)
(0.902738 -1.05624e-06 0)
(0.902734 9.0733e-07 0)
(0.902734 1.0548e-06 0)
(0.920675 -9.88488e-07 0)
(0.920677 -1.03585e-06 0)
(0.920673 9.90392e-07 0)
(0.920672 1.03441e-06 0)
(0.937885 -1.09401e-06 0)
(0.937886 -9.87673e-07 0)
(0.93788 1.09585e-06 0)
(0.937882 9.86248e-07 0)
(0.954451 -1.15095e-06 0)
(0.95445 -8.79333e-07 0)
(0.954442 1.15276e-06 0)
(0.954451 8.77957e-07 0)
(0.970445 -1.00743e-06 0)
(0.970442 -7.01601e-07 0)
(0.970433 1.00919e-06 0)
(0.970455 7.00264e-07 0)
(0.985936 -5.45972e-07 0)
(0.985932 -4.72528e-07 0)
(0.985924 5.47564e-07 0)
(0.985963 4.71043e-07 0)
(1.00103 -3.9659e-08 0)
(1.00102 -2.0478e-07 0)
(1.00102 4.10753e-08 0)
(1.00105 2.03387e-07 0)
(1.01579 4.8687e-07 0)
(1.01578 -1.12773e-08 0)
(1.01578 -4.85447e-07 0)
(1.0158 1.00697e-08 0)
(1.03026 6.30552e-07 0)
(1.03025 1.29383e-07 0)
(1.03025 -6.29342e-07 0)
(1.03026 -1.30507e-07 0)
(1.04445 5.9512e-07 0)
(1.04445 1.88502e-07 0)
(1.04444 -5.94039e-07 0)
(1.04445 -1.8962e-07 0)
(1.05838 4.36723e-07 0)
(1.05838 2.32462e-07 0)
(1.05837 -4.35844e-07 0)
(1.05838 -2.3348e-07 0)
(1.07206 3.25209e-07 0)
(1.07206 2.93875e-07 0)
(1.07205 -3.2448e-07 0)
(1.07206 -2.94778e-07 0)
(1.08549 2.70237e-07 0)
(1.0855 4.06513e-07 0)
(1.08548 -2.69676e-07 0)
(1.08549 -4.07243e-07 0)
(1.09868 2.61347e-07 0)
(1.09868 5.87053e-07 0)
(1.09867 -2.60936e-07 0)
(1.09868 -5.8765e-07 0)
(1.11162 2.79703e-07 0)
(1.11162 8.57404e-07 0)
(1.11161 -2.79478e-07 0)
(1.11162 -8.57804e-07 0)
(1.12431 3.21203e-07 0)
(1.1243 1.21079e-06 0)
(1.1243 -3.21146e-07 0)
(1.1243 -1.21098e-06 0)
(1.13671 2.88327e-07 0)
(1.1367 1.46364e-06 0)
(1.1367 -2.88433e-07 0)
(1.1367 -1.46371e-06 0)
(1.14881 2.47374e-07 0)
(1.14881 1.55575e-06 0)
(1.14881 -2.47583e-07 0)
(1.14881 -1.55545e-06 0)
(1.16058 1.34201e-07 0)
(1.1606 1.31946e-06 0)
(1.16059 -1.34496e-07 0)
(1.16059 -1.31927e-06 0)
(1.17201 1.03049e-07 0)
(1.17202 9.96549e-07 0)
(1.17202 -1.03423e-07 0)
(1.17202 -9.96073e-07 0)
(1.18304 6.94811e-08 0)
(1.18304 6.53702e-07 0)
(1.18304 -6.98487e-08 0)
(1.18304 -6.53215e-07 0)
(1.19361 1.02198e-07 0)
(1.19361 4.90102e-07 0)
(1.19361 -1.02564e-07 0)
(1.19361 -4.89542e-07 0)
(1.20365 1.27435e-07 0)
(1.20365 4.07529e-07 0)
(1.20365 -1.27706e-07 0)
(1.20364 -4.07071e-07 0)
(1.21307 1.1358e-07 0)
(1.21307 3.65072e-07 0)
(1.21307 -1.13806e-07 0)
(1.21307 -3.64701e-07 0)
(1.22176 7.98991e-08 0)
(1.22175 3.34851e-07 0)
(1.22176 -8.00548e-08 0)
(1.22175 -3.34599e-07 0)
(1.22956 5.80472e-08 0)
(1.22956 3.02795e-07 0)
(1.22956 -5.81788e-08 0)
(1.22956 -3.02597e-07 0)
(1.2363 7.90407e-08 0)
(1.2363 2.58373e-07 0)
(1.2363 -7.92145e-08 0)
(1.2363 -2.58207e-07 0)
(1.24175 1.68094e-07 0)
(1.24174 1.96706e-07 0)
(1.24175 -1.68443e-07 0)
(1.24174 -1.9661e-07 0)
(1.24563 2.64796e-07 0)
(1.24563 1.66244e-07 0)
(1.24564 -2.65134e-07 0)
(1.24563 -1.65788e-07 0)
(1.24769 9.4203e-08 0)
(1.24769 7.40809e-08 0)
(1.2477 -9.42086e-08 0)
(1.24769 -7.35134e-08 0)
)
;

boundaryField
{
    inlet
    {
        type            cyclic;
    }
    outlet
    {
        type            cyclic;
    }
    fixedWalls-bottom
    {
        type            noSlip;
    }
    fixedWalls-top
    {
        type            symmetry;
    }
    frontAndBack
    {
        type            empty;
    }
}


// ************************************************************************* //
