/*--------------------------------*- C++ -*----------------------------------*\
  =========                 |
  \\      /  F ield         | OpenFOAM: The Open Source CFD Toolbox
   \\    /   O peration     | Website:  https://openfoam.org
    \\  /    A nd           | Version:  10
     \\/     M anipulation  |
\*---------------------------------------------------------------------------*/
FoamFile
{
    format      ascii;
    class       surfaceScalarField;
    location    "5000";
    object      phi;
}
// * * * * * * * * * * * * * * * * * * * * * * * * * * * * * * * * * * * * * //

dimensions      [0 3 -1 0 0 0 0];

internalField   nonuniform List<scalar> 
696
(
6.38613e-05
4.87667e-18
6.38613e-05
2.9611e-19
6.38613e-05
-1.23771e-19
-2.6111e-19
0.000194597
5.79248e-18
0.000194597
1.14189e-18
0.000194597
-5.20329e-19
-1.17287e-18
0.000330236
6.55209e-18
0.000330236
2.57464e-18
0.000330236
-1.19322e-18
-2.6543e-18
0.000470908
8.06474e-18
0.000470908
4.52475e-18
0.000470908
-2.18987e-18
-4.61675e-18
0.000616744
9.52455e-18
0.000616744
7.17843e-18
0.000616744
-3.38567e-18
-7.39807e-18
0.000767878
1.16034e-17
0.000767878
1.06562e-17
0.000767878
-4.99487e-18
-1.09172e-17
0.000924446
1.3731e-17
0.000924446
1.51069e-17
0.000924446
-7.08332e-18
-1.53727e-17
0.00108659
1.6864e-17
0.00108659
1.99715e-17
0.00108659
-9.83567e-18
-2.00777e-17
0.00125444
1.94973e-17
0.00125444
2.5123e-17
0.00125444
-1.26774e-17
-2.52299e-17
0.00142815
2.33902e-17
0.00142815
3.1055e-17
0.00142815
-1.61427e-17
-3.11874e-17
0.00160787
2.76683e-17
0.00160787
3.80769e-17
0.00160787
-2.07577e-17
-3.77993e-17
0.00179373
3.32766e-17
0.00179373
4.53322e-17
0.00179373
-2.61858e-17
-4.51429e-17
0.00198589
3.88566e-17
0.00198589
5.27141e-17
0.00198589
-3.22197e-17
-5.18517e-17
0.00218451
4.47962e-17
0.00218451
6.08648e-17
0.00218451
-3.77095e-17
-5.98789e-17
0.00238973
5.1401e-17
0.00238973
6.82679e-17
0.00238973
-4.47162e-17
-6.74097e-17
0.00260172
5.93482e-17
0.00260172
7.52747e-17
0.00260172
-5.16892e-17
-7.52506e-17
0.00282063
6.5461e-17
0.00282063
8.09698e-17
0.00282063
-5.8139e-17
-8.13028e-17
0.00304662
7.10294e-17
0.00304662
8.6273e-17
0.00304662
-6.2271e-17
-8.72827e-17
0.00327986
7.51879e-17
0.00327986
9.00701e-17
0.00327986
-6.64874e-17
-9.1225e-17
0.00352051
7.94977e-17
0.00352051
9.40239e-17
0.00352051
-7.07745e-17
-9.49562e-17
0.00376874
8.32397e-17
0.00376874
9.65991e-17
0.00376874
-7.5122e-17
-9.71528e-17
0.00402472
8.70778e-17
0.00402472
1.02193e-16
0.00402472
-7.9408e-17
-1.01305e-16
0.0042886
9.28263e-17
0.0042886
1.05836e-16
0.0042886
-8.52569e-17
-1.05345e-16
0.00456058
9.78174e-17
0.00456058
1.10506e-16
0.00456058
-9.01998e-17
-1.08074e-16
0.00484082
1.01416e-16
0.00484082
1.11538e-16
0.00484082
-9.34944e-17
-1.10278e-16
0.00512949
1.04733e-16
0.00512949
1.12047e-16
0.00512949
-9.68831e-17
-1.09556e-16
0.00542677
1.04762e-16
0.00542677
1.11475e-16
0.00542677
-9.72078e-17
-1.08882e-16
0.00573283
1.03594e-16
0.00573283
1.10264e-16
0.00573283
-9.67341e-17
-1.06736e-16
0.00604786
1.03402e-16
0.00604786
1.09063e-16
0.00604786
-9.51121e-17
-1.07129e-16
0.00637204
1.04372e-16
0.00637204
1.05914e-16
0.00637204
-9.50886e-17
-1.04747e-16
0.00670553
1.04587e-16
0.00670553
1.03158e-16
0.00670553
-9.59204e-17
-1.01633e-16
0.00704852
1.06391e-16
0.00704852
9.73682e-17
0.00704852
-9.76447e-17
-9.54286e-17
0.00740119
1.06148e-16
0.00740119
9.19408e-17
0.00740119
-9.7834e-17
-9.01782e-17
0.00776372
1.05334e-16
0.00776372
8.31295e-17
0.00776372
-9.79653e-17
-8.05318e-17
0.00813628
1.07693e-16
0.00813628
7.5726e-17
0.00813628
-1.0004e-16
-7.21022e-17
0.00851906
1.0611e-16
0.00851906
6.89402e-17
0.00851906
-1.01121e-16
-6.45263e-17
0.00891223
1.0845e-16
0.00891223
6.23522e-17
0.00891223
-1.03102e-16
-5.65463e-17
0.00931597
1.08698e-16
0.00931597
5.2086e-17
0.00931597
-1.03679e-16
-4.54752e-17
0.00973045
1.13349e-16
0.00973045
4.13854e-17
0.00973045
-1.08251e-16
-3.5909e-17
0.0101558
1.15952e-16
0.0101558
3.03376e-17
0.0101558
-1.11805e-16
-2.53589e-17
0.0105923
1.2255e-16
0.0105923
2.49084e-17
0.0105923
-1.20013e-16
-1.79648e-17
0.0110401
1.25804e-16
0.0110401
1.8664e-17
0.0110401
-1.21961e-16
-1.27624e-17
0.0114992
1.25643e-16
0.0114992
1.45819e-17
0.0114992
-1.23889e-16
-8.18655e-18
0.0119699
1.31895e-16
0.0119699
1.37388e-17
0.0119699
-1.30904e-16
-3.54186e-18
0.0124524
1.36039e-16
0.0124524
1.11179e-17
0.0124524
-1.34831e-16
-3.19763e-18
0.0129468
1.41847e-16
0.0129468
1.25433e-17
0.0129468
-1.39211e-16
-7.26471e-18
0.0134532
1.44357e-16
0.0134532
1.32257e-17
0.0134532
-1.45107e-16
-5.02651e-18
0.0139717
1.47341e-16
0.0139717
1.32485e-17
0.0139717
-1.46656e-16
-4.95674e-18
0.0145026
1.54946e-16
0.0145026
1.33321e-17
0.0145026
-1.56107e-16
-6.24629e-18
0.015046
1.5741e-16
0.015046
1.43263e-17
0.015046
-1.59254e-16
-7.07328e-18
0.0156019
1.59455e-16
0.0156019
1.1223e-17
0.0156019
-1.58517e-16
-6.17849e-18
0.0161705
1.59782e-16
0.0161705
6.73655e-18
0.0161705
-1.55299e-16
-5.50681e-18
0.0167519
1.57703e-16
0.0167519
1.63222e-18
0.0167519
-1.52717e-16
8.10484e-19
0.0173461
1.57579e-16
0.0173461
-3.56749e-19
0.0173461
-1.51602e-16
9.69769e-19
0.0179534
1.52996e-16
0.0179534
4.07792e-18
0.0179534
-1.53354e-16
-2.94264e-18
0.0185737
1.50917e-16
0.0185737
2.39891e-18
0.0185737
-1.49471e-16
7.35891e-19
0.0192071
1.43853e-16
0.0192071
5.15485e-18
0.0192071
-1.43086e-16
-3.46168e-18
0.0198536
1.37499e-16
0.0198536
8.61287e-18
0.0198536
-1.36886e-16
-6.59459e-18
0.0205134
1.3698e-16
0.0205134
6.64928e-18
0.0205134
-1.33083e-16
-6.10663e-18
0.0211863
1.31667e-16
0.0211863
5.67121e-18
0.0211863
-1.3053e-16
-4.15711e-18
0.0218725
1.33866e-16
0.0218725
1.42934e-17
0.0218725
-1.32165e-16
-1.36778e-17
0.0225719
1.38794e-16
0.0225719
1.60149e-17
0.0225719
-1.36712e-16
-2.27971e-17
0.0232844
1.42207e-16
0.0232844
2.73169e-17
0.0232844
-1.39106e-16
-3.16392e-17
0.02401
1.44966e-16
0.02401
3.79816e-17
0.02401
-1.42517e-16
-4.11167e-17
0.0247487
1.54748e-16
0.0247487
5.71726e-17
0.0247487
-1.52706e-16
-6.26513e-17
0.0255003
1.61864e-16
0.0255003
7.07223e-17
0.0255003
-1.52903e-16
-8.14611e-17
0.0262647
1.60865e-16
0.0262647
9.3054e-17
0.0262647
-1.51801e-16
-1.02237e-16
0.0270417
1.62307e-16
0.0270417
1.06827e-16
0.0270417
-1.50817e-16
-1.16786e-16
0.0278312
1.54546e-16
0.0278312
1.05963e-16
0.0278312
-1.40268e-16
-1.20096e-16
0.0286329
1.45568e-16
0.0286329
1.0712e-16
0.0286329
-1.42076e-16
-1.12705e-16
0.0294467
1.36957e-16
0.0294467
9.73075e-17
0.0294467
-1.33707e-16
-1.04195e-16
0.0302722
1.34869e-16
0.0302722
8.26351e-17
0.0302722
-1.34987e-16
-9.20363e-17
0.0311091
1.32708e-16
0.0311091
6.92699e-17
0.0311091
-1.29619e-16
-8.19979e-17
0.0319571
1.3551e-16
0.0319571
6.96128e-17
0.0319571
-1.31336e-16
-7.6713e-17
0.0328157
1.39834e-16
0.0328157
6.38504e-17
0.0328157
-1.37712e-16
-7.52916e-17
0.0336846
1.43527e-16
0.0336846
4.85341e-17
0.0336846
-1.419e-16
-5.73287e-17
0.0345631
1.29026e-16
0.0345631
4.85053e-17
0.0345631
-1.30482e-16
-5.25127e-17
0.0354509
1.35211e-16
0.0354509
3.8016e-17
0.0354509
-1.28149e-16
-4.96826e-17
0.0363473
1.228e-16
0.0363473
4.81777e-17
0.0363473
-1.24066e-16
-5.5447e-17
0.0372517
1.30178e-16
0.0372517
4.27857e-17
0.0372517
-1.23653e-16
-6.06492e-17
0.0381633
1.34669e-16
0.0381633
4.21422e-17
0.0381633
-1.28282e-16
-5.84014e-17
0.0390814
1.24782e-16
0.0390814
3.78866e-17
0.0390814
-1.23558e-16
-5.53493e-17
0.0400052
1.25219e-16
0.0400052
2.6233e-17
0.0400052
-1.18908e-16
-4.64383e-17
0.0409337
1.15081e-16
0.0409337
3.19509e-17
0.0409337
-1.14358e-16
-4.12694e-17
0.041866
1.07453e-16
0.041866
3.0657e-17
0.041866
-1.07287e-16
-3.97062e-17
0.0428011
9.53016e-17
0.0428011
2.95944e-17
0.0428011
-9.60794e-17
-3.0189e-17
0.0437377
8.81035e-17
0.0437377
2.39289e-17
0.0437377
-8.34584e-17
-3.12105e-17
0.0446747
6.3069e-17
0.0446747
2.23061e-17
0.0446747
-6.84238e-17
-2.29944e-17
0.0456108
5.27563e-17
0.0456108
1.36417e-17
0.0456108
-5.89456e-17
-1.25553e-17
0.0465444
5.13248e-17
0.0465444
2.57892e-18
0.0465444
-5.38193e-17
5.11767e-19
0.0474742
3.70187e-17
0.0474742
9.93941e-18
0.0474742
-5.01679e-17
-2.85398e-18
0.0483985
3.43906e-17
0.0483985
9.7347e-18
0.0483985
-3.68981e-17
-3.39155e-18
0.0493156
2.96078e-17
0.0493156
2.82919e-17
0.0493156
-3.27556e-17
-2.65341e-17
0.0502235
3.2477e-17
0.0502235
4.47166e-17
0.0502235
-3.64666e-17
-4.14478e-17
0.0511204
3.86302e-17
0.0511204
5.00787e-17
0.0511204
-3.11599e-17
-5.30793e-17
0.052004
3.32617e-17
0.052004
5.85275e-17
0.052004
-3.54883e-17
-5.79308e-17
0.0528722
1.95254e-17
0.0528722
4.68903e-17
0.0528722
-1.74931e-17
-5.17495e-17
0.0537225
4.27051e-18
0.0537225
3.39166e-17
0.0537225
-5.89964e-18
-3.66857e-17
0.0545524
4.13474e-18
0.0545524
1.33123e-17
0.0545524
-7.92699e-18
-1.07405e-17
0.0553591
0.0553591
0.0553591
)
;

boundaryField
{
    inlet
    {
        type            cyclic;
        value           nonuniform List<scalar> 
100
(
-0.0553591
-0.0545524
-0.0537225
-0.0528722
-0.052004
-0.0511204
-0.0502235
-0.0493156
-0.0483985
-0.0474742
-0.0465444
-0.0456108
-0.0446747
-0.0437377
-0.0428011
-0.041866
-0.0409337
-0.0400052
-0.0390814
-0.0381633
-0.0372517
-0.0363473
-0.0354509
-0.0345631
-0.0336846
-0.0328157
-0.0319571
-0.0311091
-0.0302722
-0.0294467
-0.0286329
-0.0278312
-0.0270417
-0.0262647
-0.0255003
-0.0247487
-0.02401
-0.0232844
-0.0225719
-0.0218725
-0.0211863
-0.0205134
-0.0198536
-0.0192071
-0.0185737
-0.0179534
-0.0173461
-0.0167519
-0.0161705
-0.0156019
-0.015046
-0.0145026
-0.0139717
-0.0134532
-0.0129468
-0.0124524
-0.0119699
-0.0114992
-0.0110401
-0.0105923
-0.0101558
-0.00973045
-0.00931597
-0.00891223
-0.00851906
-0.00813628
-0.00776372
-0.00740119
-0.00704852
-0.00670553
-0.00637204
-0.00604786
-0.00573283
-0.00542677
-0.00512949
-0.00484082
-0.00456058
-0.0042886
-0.00402472
-0.00376874
-0.00352051
-0.00327986
-0.00304662
-0.00282063
-0.00260172
-0.00238973
-0.00218451
-0.00198589
-0.00179373
-0.00160787
-0.00142815
-0.00125444
-0.00108659
-0.000924446
-0.000767878
-0.000616744
-0.000470908
-0.000330236
-0.000194597
-6.38613e-05
)
;
    }
    outlet
    {
        type            cyclic;
        value           nonuniform List<scalar> 
100
(
0.0553591
0.0545524
0.0537225
0.0528722
0.052004
0.0511204
0.0502235
0.0493156
0.0483985
0.0474742
0.0465444
0.0456108
0.0446747
0.0437377
0.0428011
0.041866
0.0409337
0.0400052
0.0390814
0.0381633
0.0372517
0.0363473
0.0354509
0.0345631
0.0336846
0.0328157
0.0319571
0.0311091
0.0302722
0.0294467
0.0286329
0.0278312
0.0270417
0.0262647
0.0255003
0.0247487
0.02401
0.0232844
0.0225719
0.0218725
0.0211863
0.0205134
0.0198536
0.0192071
0.0185737
0.0179534
0.0173461
0.0167519
0.0161705
0.0156019
0.015046
0.0145026
0.0139717
0.0134532
0.0129468
0.0124524
0.0119699
0.0114992
0.0110401
0.0105923
0.0101558
0.00973045
0.00931597
0.00891223
0.00851906
0.00813628
0.00776372
0.00740119
0.00704852
0.00670553
0.00637204
0.00604786
0.00573283
0.00542677
0.00512949
0.00484082
0.00456058
0.0042886
0.00402472
0.00376874
0.00352051
0.00327986
0.00304662
0.00282063
0.00260172
0.00238973
0.00218451
0.00198589
0.00179373
0.00160787
0.00142815
0.00125444
0.00108659
0.000924446
0.000767878
0.000616744
0.000470908
0.000330236
0.000194597
6.38613e-05
)
;
    }
    fixedWalls-bottom
    {
        type            calculated;
        value           uniform 0;
    }
    fixedWalls-top
    {
        type            symmetry;
        value           uniform 0;
    }
    frontAndBack
    {
        type            empty;
        value           nonuniform List<scalar> 0();
    }
}


// ************************************************************************* //
