/*--------------------------------*- C++ -*----------------------------------*\
  =========                 |
  \\      /  F ield         | OpenFOAM: The Open Source CFD Toolbox
   \\    /   O peration     | Website:  https://openfoam.org
    \\  /    A nd           | Version:  10
     \\/     M anipulation  |
\*---------------------------------------------------------------------------*/
FoamFile
{
    format      ascii;
    class       volScalarField;
    location    "10000";
    object      omega;
}
// * * * * * * * * * * * * * * * * * * * * * * * * * * * * * * * * * * * * * //

dimensions      [0 0 -1 0 0 0 0];

internalField   nonuniform List<scalar> 
400
(
69046.1
69046.1
69046.1
69046.1
11322.7
11322.7
11322.7
11322.7
3733.81
3733.81
3733.81
3733.81
1736.31
1736.31
1736.31
1736.31
978.161
978.157
978.16
978.155
621.698
621.691
621.695
621.686
428.822
428.813
428.817
428.807
313.203
313.193
313.197
313.188
238.378
238.369
238.372
238.365
187.104
187.096
187.099
187.093
150.408
150.402
150.404
150.4
123.24
123.235
123.237
123.233
102.566
102.562
102.563
102.561
86.4772
86.4743
86.4755
86.4743
73.7308
73.7284
73.7293
73.7289
63.4866
63.4845
63.4852
63.4855
55.1537
55.1515
55.1522
55.1532
48.3026
48.3002
48.3008
48.3026
42.6151
42.6124
42.613
42.6154
37.8521
37.849
37.8496
37.8527
33.8318
33.8282
33.8288
33.8325
30.4141
30.41
30.4106
30.415
27.49
27.4855
27.486
27.491
24.9737
24.9687
24.9692
24.9748
22.7969
22.7914
22.7918
22.798
20.9047
20.8987
20.8991
20.9057
19.2528
19.2464
19.2466
19.2537
17.805
17.7982
17.7982
17.8057
16.5313
16.5243
16.5241
16.5319
15.4073
15.4
15.3995
15.4076
14.4122
14.4049
14.4041
14.4123
13.529
13.5217
13.5205
13.5288
12.7431
12.7359
12.7344
12.7427
12.0423
12.0353
12.0334
12.0415
11.4162
11.4095
11.4071
11.4151
10.8559
10.8496
10.8468
10.8545
10.3538
10.3479
10.3446
10.352
9.9033
9.89787
9.89416
9.90111
9.49872
9.49383
9.48971
9.49616
9.13515
9.13083
9.12633
9.13221
8.8083
8.80455
8.79973
8.80496
8.51438
8.51121
8.50615
8.51063
8.25009
8.24744
8.24226
8.2459
8.01246
8.01028
8.00513
8.0078
7.79889
7.79707
7.79211
7.79367
7.60697
7.60545
7.60084
7.60116
7.43453
7.43326
7.42918
7.42807
7.27956
7.27852
7.27493
7.27246
7.14025
7.1394
7.13629
7.13247
7.0149
7.01418
7.01148
7.00641
6.90191
6.90128
6.89883
6.8927
6.79975
6.79918
6.79685
6.7898
6.70698
6.70643
6.70416
6.69624
6.62222
6.62167
6.61939
6.61062
6.54413
6.54356
6.54124
6.53161
6.47143
6.47084
6.46844
6.45792
6.40288
6.40227
6.39974
6.38831
6.33726
6.33665
6.33396
6.32157
6.2734
6.2728
6.2699
6.25654
6.21012
6.20952
6.20642
6.19204
6.14624
6.14562
6.14231
6.12691
6.08055
6.07993
6.07637
6.05998
6.0119
6.01134
6.00738
5.9901
5.93935
5.93898
5.93438
5.91632
5.86234
5.86228
5.85679
5.83801
5.7807
5.78107
5.77437
5.75494
5.6945
5.69479
5.68738
5.66714
5.60399
5.60392
5.59609
5.57494
5.5093
5.50935
5.50117
5.47907
5.41174
5.41205
5.40355
5.38073
5.31304
5.31297
5.30427
5.28111
5.21343
5.21332
5.20453
5.18102
5.11362
5.11364
5.10486
5.08101
5.01399
5.01417
5.00564
4.98137
4.91458
4.91475
4.90708
4.88221
4.81549
4.81487
4.80937
4.78355
4.71764
4.71599
4.71193
4.68541
4.62119
4.61735
4.61523
4.5877
4.52697
4.5196
4.51906
4.49038
4.43058
4.42331
4.42311
4.39357
4.33413
4.32709
4.32678
4.29768
4.2373
4.23165
4.23037
4.20268
4.13906
4.13783
4.13395
4.10858
4.04451
4.045
4.03733
4.0156
3.95123
3.95241
3.94137
3.92381
3.85931
3.8602
3.84883
3.83264
3.76899
3.76974
3.75826
3.74284
3.68054
3.68128
3.6697
3.65477
3.59431
3.59514
3.58352
3.5688
3.5107
3.5117
3.50027
3.4853
3.43015
3.43143
3.4207
3.40469
3.35318
3.35475
3.34531
3.32748
3.28037
3.28168
3.27402
3.2545
3.21244
3.21468
3.20316
3.18762
3.15021
3.1524
3.14097
3.12527
3.09457
3.09646
3.08605
3.06888
3.04628
3.04673
3.03891
3.01953
3.00637
3.00056
2.99853
2.97915
2.97509
2.96794
2.96674
2.94742
2.95459
2.94612
2.94465
2.92576
)
;

boundaryField
{
    inlet
    {
        type            cyclic;
    }
    outlet
    {
        type            cyclic;
    }
    fixedWalls-bottom
    {
        beta1           0.075;
        blended         0;
        type            omegaWallFunction;
        value           uniform 69046.1;
    }
    fixedWalls-top
    {
        type            symmetry;
    }
    frontAndBack
    {
        type            empty;
    }
}


// ************************************************************************* //
