/*--------------------------------*- C++ -*----------------------------------*\
  =========                 |
  \\      /  F ield         | OpenFOAM: The Open Source CFD Toolbox
   \\    /   O peration     | Website:  https://openfoam.org
    \\  /    A nd           | Version:  10
     \\/     M anipulation  |
\*---------------------------------------------------------------------------*/
FoamFile
{
    format      ascii;
    class       volScalarField;
    location    "10000";
    object      p;
}
// * * * * * * * * * * * * * * * * * * * * * * * * * * * * * * * * * * * * * //

dimensions      [0 2 -2 0 0 0 0];

internalField   nonuniform List<scalar> 
400
(
3.12375e-18
-1.80535e-16
-4.69257e-16
-2.25076e-16
3.98611e-18
-1.80472e-16
-4.6896e-16
-2.25171e-16
4.90417e-18
-1.80355e-16
-4.68701e-16
-2.25295e-16
6.32536e-18
-1.80195e-16
-4.68507e-16
-2.25421e-16
7.98311e-18
-1.80059e-16
-4.68337e-16
-2.25626e-16
9.82481e-18
-1.80103e-16
-4.68191e-16
-2.2573e-16
1.15077e-17
-1.80196e-16
-4.67928e-16
-2.25824e-16
1.31323e-17
-1.80291e-16
-4.677e-16
-2.25864e-16
1.47624e-17
-1.80337e-16
-4.67519e-16
-2.26067e-16
1.6382e-17
-1.8029e-16
-4.67414e-16
-2.26258e-16
1.79465e-17
-1.80134e-16
-4.67292e-16
-2.26606e-16
1.96571e-17
-1.80124e-16
-4.6725e-16
-2.26774e-16
2.15021e-17
-1.80154e-16
-4.67222e-16
-2.26971e-16
2.3558e-17
-1.7962e-16
-4.67232e-16
-2.27718e-16
2.57697e-17
-1.78723e-16
-4.67397e-16
-2.28844e-16
2.78675e-17
-1.78058e-16
-4.67445e-16
-2.29629e-16
3.00338e-17
-1.7799e-16
-4.67529e-16
-2.29774e-16
3.21666e-17
-1.77596e-16
-4.67674e-16
-2.3021e-16
3.40606e-17
-1.77273e-16
-4.67515e-16
-2.30627e-16
3.57817e-17
-1.76772e-16
-4.67411e-16
-2.30952e-16
3.74192e-17
-1.76853e-16
-4.67115e-16
-2.30671e-16
3.90413e-17
-1.76337e-16
-4.66705e-16
-2.31105e-16
4.08666e-17
-1.76227e-16
-4.66417e-16
-2.31087e-16
4.2964e-17
-1.76024e-16
-4.66537e-16
-2.31342e-16
4.51176e-17
-1.76448e-16
-4.66213e-16
-2.31298e-16
4.68566e-17
-1.7699e-16
-4.66008e-16
-2.3084e-16
4.85277e-17
-1.77417e-16
-4.65885e-16
-2.30505e-16
5.00779e-17
-1.78307e-16
-4.6595e-16
-2.29374e-16
5.15727e-17
-1.79167e-16
-4.65806e-16
-2.28244e-16
5.28305e-17
-1.79854e-16
-4.65515e-16
-2.27387e-16
5.44272e-17
-1.80129e-16
-4.65512e-16
-2.27038e-16
5.64308e-17
-1.80365e-16
-4.66093e-16
-2.26568e-16
5.77659e-17
-1.8097e-16
-4.66088e-16
-2.25842e-16
5.84066e-17
-1.81508e-16
-4.65341e-16
-2.25004e-16
5.93865e-17
-1.8136e-16
-4.64649e-16
-2.2525e-16
5.99449e-17
-1.80754e-16
-4.63809e-16
-2.25736e-16
6.03722e-17
-1.79971e-16
-4.62806e-16
-2.26201e-16
6.15683e-17
-1.79792e-16
-4.6228e-16
-2.26437e-16
6.28678e-17
-1.79474e-16
-4.62028e-16
-2.26658e-16
6.44669e-17
-1.78159e-16
-4.6213e-16
-2.27793e-16
6.57253e-17
-1.76265e-16
-4.62352e-16
-2.29572e-16
6.70721e-17
-1.76154e-16
-4.62689e-16
-2.2937e-16
6.89681e-17
-1.74884e-16
-4.62435e-16
-2.30898e-16
7.05307e-17
-1.71758e-16
-4.62298e-16
-2.33718e-16
7.13747e-17
-1.70228e-16
-4.61777e-16
-2.35021e-16
7.29687e-17
-1.68955e-16
-4.61438e-16
-2.36972e-16
7.44999e-17
-1.68881e-16
-4.61134e-16
-2.3767e-16
7.47427e-17
-1.68316e-16
-4.59842e-16
-2.38612e-16
7.55637e-17
-1.66513e-16
-4.59397e-16
-2.40362e-16
7.63406e-17
-1.64332e-16
-4.59081e-16
-2.42541e-16
7.55487e-17
-1.63321e-16
-4.57551e-16
-2.43558e-16
7.49414e-17
-1.63239e-16
-4.55977e-16
-2.43278e-16
7.45491e-17
-1.6264e-16
-4.55646e-16
-2.42288e-16
7.39678e-17
-1.62125e-16
-4.55273e-16
-2.41376e-16
7.39812e-17
-1.64055e-16
-4.5507e-16
-2.38673e-16
7.34523e-17
-1.64665e-16
-4.54567e-16
-2.36434e-16
7.31553e-17
-1.64555e-16
-4.54075e-16
-2.35348e-16
7.34119e-17
-1.6455e-16
-4.54409e-16
-2.34341e-16
7.31939e-17
-1.64649e-16
-4.54917e-16
-2.32686e-16
7.3182e-17
-1.64383e-16
-4.55227e-16
-2.31811e-16
7.34051e-17
-1.61389e-16
-4.55351e-16
-2.33385e-16
7.31653e-17
-1.60218e-16
-4.54916e-16
-2.34337e-16
7.38385e-17
-1.59111e-16
-4.55501e-16
-2.35665e-16
7.47344e-17
-1.59568e-16
-4.56039e-16
-2.3475e-16
7.71771e-17
-1.58824e-16
-4.57637e-16
-2.35537e-16
7.95199e-17
-1.58382e-16
-4.60323e-16
-2.35435e-16
8.17948e-17
-1.58227e-16
-4.626e-16
-2.35407e-16
8.2125e-17
-1.57908e-16
-4.6285e-16
-2.3515e-16
8.39872e-17
-1.58452e-16
-4.6389e-16
-2.35282e-16
8.4901e-17
-1.57964e-16
-4.64743e-16
-2.3519e-16
8.61279e-17
-1.56521e-16
-4.6488e-16
-2.36992e-16
8.55723e-17
-1.54786e-16
-4.62858e-16
-2.39749e-16
8.38975e-17
-1.51162e-16
-4.59808e-16
-2.44038e-16
8.08346e-17
-1.47839e-16
-4.56044e-16
-2.47782e-16
7.98853e-17
-1.45285e-16
-4.52857e-16
-2.52161e-16
7.81643e-17
-1.43932e-16
-4.49577e-16
-2.53751e-16
7.57172e-17
-1.46445e-16
-4.45262e-16
-2.53756e-16
7.31138e-17
-1.48757e-16
-4.41417e-16
-2.5331e-16
7.31229e-17
-1.5025e-16
-4.38853e-16
-2.53532e-16
7.24404e-17
-1.50937e-16
-4.35248e-16
-2.55484e-16
7.27231e-17
-1.51643e-16
-4.34038e-16
-2.55936e-16
7.34156e-17
-1.52496e-16
-4.33658e-16
-2.55985e-16
7.50725e-17
-1.52154e-16
-4.35127e-16
-2.5721e-16
7.76665e-17
-1.48837e-16
-4.35791e-16
-2.61659e-16
7.86737e-17
-1.45687e-16
-4.3499e-16
-2.65702e-16
7.86337e-17
-1.41397e-16
-4.33382e-16
-2.70383e-16
7.90963e-17
-1.38816e-16
-4.31975e-16
-2.74207e-16
7.80917e-17
-1.36339e-16
-4.30203e-16
-2.77713e-16
7.95765e-17
-1.32034e-16
-4.29081e-16
-2.84812e-16
8.15843e-17
-1.26633e-16
-4.28687e-16
-2.92087e-16
8.17776e-17
-1.23131e-16
-4.26029e-16
-2.97663e-16
8.0672e-17
-1.20594e-16
-4.2357e-16
-3.01127e-16
8.1127e-17
-1.1823e-16
-4.23108e-16
-3.04409e-16
8.12721e-17
-1.16135e-16
-4.21396e-16
-3.07981e-16
8.2067e-17
-1.12841e-16
-4.20387e-16
-3.13223e-16
8.44052e-17
-1.11005e-16
-4.22165e-16
-3.15181e-16
8.65201e-17
-1.11576e-16
-4.24185e-16
-3.15274e-16
8.75632e-17
-1.11639e-16
-4.24248e-16
-3.1575e-16
8.62853e-17
-1.11909e-16
-4.23026e-16
-3.15315e-16
8.37686e-17
-1.14324e-16
-4.1975e-16
-3.13659e-16
)
;

boundaryField
{
    inlet
    {
        type            cyclic;
    }
    outlet
    {
        type            cyclic;
    }
    fixedWalls-bottom
    {
        type            zeroGradient;
    }
    fixedWalls-top
    {
        type            symmetry;
    }
    frontAndBack
    {
        type            empty;
    }
}


// ************************************************************************* //
