/*--------------------------------*- C++ -*----------------------------------*\
  =========                 |
  \\      /  F ield         | OpenFOAM: The Open Source CFD Toolbox
   \\    /   O peration     | Website:  https://openfoam.org
    \\  /    A nd           | Version:  10
     \\/     M anipulation  |
\*---------------------------------------------------------------------------*/
FoamFile
{
    format      ascii;
    class       surfaceScalarField;
    location    "10000";
    object      phi;
}
// * * * * * * * * * * * * * * * * * * * * * * * * * * * * * * * * * * * * * //

dimensions      [0 3 -1 0 0 0 0];

internalField   nonuniform List<scalar> 
696
(
6.38551e-05
-8.01826e-18
6.38551e-05
1.94653e-20
6.38551e-05
1.2168e-19
-5.78406e-20
0.000194578
-9.22012e-18
0.000194578
3.00484e-20
0.000194578
6.26632e-19
-1.09096e-19
0.000330204
-1.01374e-17
0.000330204
1.5124e-19
0.000330204
1.32296e-18
-2.82703e-19
0.000470862
-1.19063e-17
0.000470862
3.51698e-19
0.000470862
2.16192e-18
-3.14762e-19
0.000616684
-1.32009e-17
0.000616684
9.15153e-19
0.000616684
3.08438e-18
-6.6313e-19
0.000767803
-1.50557e-17
0.000767803
1.31089e-18
0.000767803
4.17341e-18
-1.16357e-18
0.000924356
-1.64984e-17
0.000924356
1.58795e-18
0.000924356
5.5601e-18
-1.42759e-18
0.00108648
-1.86185e-17
0.00108648
1.89583e-18
0.00108648
7.12169e-18
-1.77247e-18
0.00125432
-2.04329e-17
0.00125432
2.12875e-18
0.00125432
8.88894e-18
-1.78532e-18
0.00142801
-2.28878e-17
0.00142801
2.05696e-18
0.00142801
1.07724e-17
-1.874e-18
0.00160771
-2.4473e-17
0.00160771
2.83253e-18
0.00160771
1.24524e-17
-2.42257e-18
0.00179356
-2.7382e-17
0.00179356
3.33545e-18
0.00179356
1.43623e-17
-2.68996e-18
0.00198571
-2.91375e-17
0.00198571
3.5819e-18
0.00198571
1.62196e-17
-3.24493e-18
0.0021843
-3.15613e-17
0.0021843
4.84917e-18
0.0021843
1.81435e-17
-4.77653e-18
0.00238951
-3.30519e-17
0.00238951
6.33486e-18
0.00238951
2.03449e-17
-6.92458e-18
0.00260148
-3.42366e-17
0.00260148
9.24894e-18
0.00260148
2.14344e-17
-9.84409e-18
0.00282037
-3.56109e-17
0.00282037
1.16963e-17
0.00282037
2.29986e-17
-1.28326e-17
0.00304635
-3.67585e-17
0.00304635
1.54503e-17
0.00304635
2.33442e-17
-1.59571e-17
0.00327957
-3.69084e-17
0.00327957
1.845e-17
0.00327957
2.46836e-17
-1.97831e-17
0.0035202
-3.87553e-17
0.0035202
2.21184e-17
0.0035202
2.62951e-17
-2.39446e-17
0.00376841
-3.96803e-17
0.00376841
2.55599e-17
0.00376841
2.73585e-17
-2.68839e-17
0.00402436
-4.27621e-17
0.00402436
2.97346e-17
0.00402436
2.92456e-17
-3.17314e-17
0.00428823
-4.45981e-17
0.00428823
3.39514e-17
0.00428823
3.08668e-17
-3.50179e-17
0.00456019
-4.59477e-17
0.00456019
3.8509e-17
0.00456019
3.24961e-17
-3.95167e-17
0.00484041
-4.65042e-17
0.00484041
4.1614e-17
0.00484041
3.41092e-17
-4.30591e-17
0.00512906
-4.69768e-17
0.00512906
4.40569e-17
0.00512906
3.57145e-17
-4.65209e-17
0.00542633
-4.784e-17
0.00542633
4.60579e-17
0.00542633
3.71295e-17
-4.86648e-17
0.00573238
-4.81906e-17
0.00573238
4.72948e-17
0.00573238
3.74917e-17
-5.07525e-17
0.00604739
-4.70951e-17
0.00604739
4.72789e-17
0.00604739
3.70227e-17
-5.05317e-17
0.00637155
-4.77257e-17
0.00637155
4.52423e-17
0.00637155
3.69051e-17
-4.82893e-17
0.00670502
-4.64815e-17
0.00670502
4.17357e-17
0.00670502
3.71422e-17
-4.60429e-17
0.007048
-4.4568e-17
0.007048
3.79409e-17
0.007048
3.51273e-17
-4.23656e-17
0.00740066
-4.17551e-17
0.00740066
3.45676e-17
0.00740066
3.28582e-17
-3.92032e-17
0.00776317
-3.95013e-17
0.00776317
2.88426e-17
0.00776317
3.1113e-17
-3.46108e-17
0.00813572
-3.74061e-17
0.00813572
2.14874e-17
0.00813572
2.88452e-17
-2.78557e-17
0.00851849
-3.40434e-17
0.00851849
1.62791e-17
0.00851849
2.43045e-17
-2.14564e-17
0.00891165
-3.50179e-17
0.00891165
9.85709e-18
0.00891165
2.47286e-17
-1.45115e-17
0.00931538
-3.32301e-17
0.00931538
5.48487e-18
0.00931538
2.30882e-17
-1.05269e-17
0.00972985
-3.08246e-17
0.00972985
-6.38505e-19
0.00972985
2.33311e-17
-5.54756e-18
0.0101552
-2.88066e-17
0.0101552
-8.46273e-18
0.0101552
2.09272e-17
1.76266e-18
0.0105917
-2.63985e-17
0.0105917
-1.1228e-17
0.0105917
1.83453e-17
5.10811e-18
0.0110394
-2.45843e-17
0.0110394
-1.65669e-17
0.0110394
1.4196e-17
1.19712e-17
0.0114986
-2.19311e-17
0.0114986
-2.05178e-17
0.0114986
1.11771e-17
1.55331e-17
0.0119693
-1.92613e-17
0.0119693
-2.02111e-17
0.0119693
8.77776e-18
1.56926e-17
0.0124518
-2.09501e-17
0.0124518
-1.77302e-17
0.0124518
8.9843e-18
1.63102e-17
0.0129461
-1.75777e-17
0.0129461
-1.2387e-17
0.0129461
5.40859e-18
1.28518e-17
0.0134525
-1.1755e-17
0.0134525
-1.09887e-17
0.0134525
3.70926e-19
1.08692e-17
0.0139711
-1.07086e-17
0.0139711
-1.18018e-17
0.0139711
2.45094e-18
7.89436e-18
0.014502
-8.59966e-18
0.014502
-1.03963e-17
0.014502
2.61958e-18
5.76695e-18
0.0150454
-5.9709e-18
0.0150454
-7.052e-18
0.0150454
3.83892e-18
-1.65606e-18
0.0156013
-9.05383e-18
0.0156013
1.39343e-18
0.0156013
6.84618e-18
-1.12447e-17
0.0161699
-1.05907e-17
0.0161699
6.16994e-18
0.0161699
1.15544e-17
-1.95288e-17
0.0167513
-1.51756e-17
0.0167513
1.17785e-17
0.0167513
1.58547e-17
-2.6063e-17
0.0173456
-2.08576e-17
0.0173456
1.60027e-17
0.0173456
2.2433e-17
-2.94385e-17
0.0179529
-2.39664e-17
0.0179529
1.10033e-17
0.0179529
2.75462e-17
-2.85849e-17
0.0185732
-2.89117e-17
0.0185732
5.73544e-18
0.0185732
2.82357e-17
-2.13397e-17
0.0192066
-2.66247e-17
0.0192066
2.10039e-18
0.0192066
3.18647e-17
-1.91139e-17
0.0198532
-2.88261e-17
0.0198532
-3.68972e-18
0.0198532
3.30023e-17
-1.36856e-17
0.0205129
-3.27509e-17
0.0205129
-9.82183e-18
0.0205129
3.48983e-17
-4.98684e-18
0.0211859
-3.3686e-17
0.0211859
-2.03639e-17
0.0211859
3.65513e-17
6.13176e-18
0.0218721
-3.42857e-17
0.0218721
-2.74201e-17
0.0218721
3.48254e-17
1.6075e-17
0.0225715
-3.6654e-17
0.0225715
-2.64829e-17
0.0225715
3.61523e-17
1.88243e-17
0.0232841
-4.00502e-17
0.0232841
-2.59583e-17
0.0232841
3.98578e-17
1.72287e-17
0.0240098
-4.30842e-17
0.0240098
-2.71676e-17
0.0240098
3.96601e-17
2.32513e-17
0.0247484
-4.54002e-17
0.0247484
-2.92873e-17
0.0247484
4.40794e-17
2.30097e-17
0.0255001
-3.91812e-17
0.0255001
-2.99629e-17
0.0255001
3.56386e-17
2.35289e-17
0.0262645
-2.50803e-17
0.0262645
-2.99028e-17
0.0262645
2.09679e-17
2.37653e-17
0.0270416
-2.4985e-17
0.0270416
-2.52628e-17
0.0270416
1.3124e-17
2.73202e-17
0.0278311
-1.42416e-17
0.0278311
-2.19465e-17
0.0278311
-2.54714e-18
2.63739e-17
0.0286329
-8.66097e-18
0.0286329
-2.37472e-17
0.0286329
-1.09923e-17
2.83835e-17
0.0294467
1.29721e-17
0.0294467
-2.37346e-17
0.0294467
-3.32547e-17
3.02234e-17
0.0302723
3.12862e-17
0.0302723
-1.40839e-17
0.0302723
-5.11062e-17
1.83876e-17
0.0311092
3.47572e-17
0.0311092
-1.16192e-17
0.0311092
-4.98739e-17
1.32873e-17
0.0319573
2.65475e-17
0.0319573
8.08979e-18
0.0319573
-4.81502e-17
6.14804e-19
0.0328159
2.64536e-17
0.0328159
2.45735e-17
0.0328159
-4.87826e-17
-1.76724e-17
0.0336849
2.48415e-17
0.0336849
4.52144e-17
0.0336849
-5.01716e-17
-2.69217e-17
0.0345635
2.02897e-17
0.0345635
4.5121e-17
0.0345635
-4.96464e-17
-2.76745e-17
0.0354514
4.56602e-18
0.0354514
4.2486e-17
0.0354514
-3.73263e-17
-2.2621e-17
0.0363478
5.6099e-18
0.0363478
3.30572e-17
0.0363478
-3.5495e-17
-2.16736e-17
0.0372522
4.46331e-18
0.0372522
2.25743e-17
0.0372522
-2.83215e-17
-1.27809e-17
0.0381639
7.84708e-18
0.0381639
9.4894e-18
0.0381639
-2.54286e-17
-3.23797e-18
0.0390821
1.40346e-18
0.0390821
-2.62244e-18
0.0390821
-2.14105e-17
7.74688e-18
0.0400059
5.18967e-18
0.0400059
-1.81612e-17
0.0400059
-3.14193e-17
2.63914e-17
0.0409345
2.05302e-17
0.0409345
-2.38584e-17
0.0409345
-4.17939e-17
2.53561e-17
0.0418669
2.90058e-17
0.0418669
-3.59333e-17
0.0418669
-4.76449e-17
4.2441e-17
0.042802
3.52037e-17
0.042802
-3.84956e-17
0.042802
-5.87743e-17
4.30366e-17
0.0437387
3.70725e-17
0.0437387
-2.92902e-17
0.0437387
-6.29795e-17
4.32703e-17
0.0446758
2.94833e-17
0.0446758
-3.52659e-17
0.0446758
-6.13293e-17
6.29982e-17
0.0456119
2.42931e-17
0.0456119
-3.42438e-17
0.0456119
-5.9031e-17
5.44846e-17
0.0465456
4.00271e-17
0.0465456
-3.00458e-17
0.0465456
-6.93735e-17
4.70214e-17
0.0474755
4.5208e-17
0.0474755
-3.12798e-17
0.0474755
-6.06123e-17
3.70284e-17
0.0483998
4.36015e-17
0.0483998
-3.15635e-17
0.0483998
-5.10041e-17
3.71753e-17
0.0493169
4.33766e-17
0.0493169
-2.96623e-17
0.0493169
-5.60147e-17
3.73111e-17
0.0502249
3.41518e-17
0.0502249
-2.61429e-17
0.0502249
-3.99696e-17
3.26014e-17
0.0511218
2.27279e-17
0.0511218
-2.4175e-17
0.0511218
-2.94241e-17
3.0276e-17
0.0520055
1.66125e-17
0.0520055
-2.44639e-18
0.0520055
-2.76472e-17
1.61307e-17
0.0528737
4.61002e-18
0.0528737
1.4976e-19
0.0528737
-3.02176e-17
2.32989e-17
0.0537241
5.14939e-18
0.0537241
-8.98662e-19
0.0537241
-1.8868e-17
1.05329e-17
0.054554
6.31086e-18
0.054554
2.14279e-18
0.054554
-1.79393e-17
8.8528e-18
0.0553608
0.0553608
0.0553608
)
;

boundaryField
{
    inlet
    {
        type            cyclic;
        value           nonuniform List<scalar> 
100
(
-0.0553608
-0.054554
-0.0537241
-0.0528737
-0.0520055
-0.0511218
-0.0502249
-0.0493169
-0.0483998
-0.0474755
-0.0465456
-0.0456119
-0.0446758
-0.0437387
-0.042802
-0.0418669
-0.0409345
-0.0400059
-0.0390821
-0.0381639
-0.0372522
-0.0363478
-0.0354514
-0.0345635
-0.0336849
-0.0328159
-0.0319573
-0.0311092
-0.0302723
-0.0294467
-0.0286329
-0.0278311
-0.0270416
-0.0262645
-0.0255001
-0.0247484
-0.0240098
-0.0232841
-0.0225715
-0.0218721
-0.0211859
-0.0205129
-0.0198532
-0.0192066
-0.0185732
-0.0179529
-0.0173456
-0.0167513
-0.0161699
-0.0156013
-0.0150454
-0.014502
-0.0139711
-0.0134525
-0.0129461
-0.0124518
-0.0119693
-0.0114986
-0.0110394
-0.0105917
-0.0101552
-0.00972985
-0.00931538
-0.00891165
-0.00851849
-0.00813572
-0.00776317
-0.00740066
-0.007048
-0.00670502
-0.00637155
-0.00604739
-0.00573238
-0.00542633
-0.00512906
-0.00484041
-0.00456019
-0.00428823
-0.00402436
-0.00376841
-0.0035202
-0.00327957
-0.00304635
-0.00282037
-0.00260148
-0.00238951
-0.0021843
-0.00198571
-0.00179356
-0.00160771
-0.00142801
-0.00125432
-0.00108648
-0.000924356
-0.000767803
-0.000616684
-0.000470862
-0.000330204
-0.000194578
-6.38551e-05
)
;
    }
    outlet
    {
        type            cyclic;
        value           nonuniform List<scalar> 
100
(
0.0553608
0.054554
0.0537241
0.0528737
0.0520055
0.0511218
0.0502249
0.0493169
0.0483998
0.0474755
0.0465456
0.0456119
0.0446758
0.0437387
0.042802
0.0418669
0.0409345
0.0400059
0.0390821
0.0381639
0.0372522
0.0363478
0.0354514
0.0345635
0.0336849
0.0328159
0.0319573
0.0311092
0.0302723
0.0294467
0.0286329
0.0278311
0.0270416
0.0262645
0.0255001
0.0247484
0.0240098
0.0232841
0.0225715
0.0218721
0.0211859
0.0205129
0.0198532
0.0192066
0.0185732
0.0179529
0.0173456
0.0167513
0.0161699
0.0156013
0.0150454
0.014502
0.0139711
0.0134525
0.0129461
0.0124518
0.0119693
0.0114986
0.0110394
0.0105917
0.0101552
0.00972985
0.00931538
0.00891165
0.00851849
0.00813572
0.00776317
0.00740066
0.007048
0.00670502
0.00637155
0.00604739
0.00573238
0.00542633
0.00512906
0.00484041
0.00456019
0.00428823
0.00402436
0.00376841
0.0035202
0.00327957
0.00304635
0.00282037
0.00260148
0.00238951
0.0021843
0.00198571
0.00179356
0.00160771
0.00142801
0.00125432
0.00108648
0.000924356
0.000767803
0.000616684
0.000470862
0.000330204
0.000194578
6.38551e-05
)
;
    }
    fixedWalls-bottom
    {
        type            calculated;
        value           uniform 0;
    }
    fixedWalls-top
    {
        type            symmetry;
        value           uniform 0;
    }
    frontAndBack
    {
        type            empty;
        value           nonuniform List<scalar> 0();
    }
}


// ************************************************************************* //
