/*--------------------------------*- C++ -*----------------------------------*\
  =========                 |
  \\      /  F ield         | OpenFOAM: The Open Source CFD Toolbox
   \\    /   O peration     | Website:  https://openfoam.org
    \\  /    A nd           | Version:  10
     \\/     M anipulation  |
\*---------------------------------------------------------------------------*/
FoamFile
{
    format      ascii;
    class       volScalarField;
    location    "2500";
    object      k;
}
// * * * * * * * * * * * * * * * * * * * * * * * * * * * * * * * * * * * * * //

dimensions      [0 2 -2 0 0 0 0];

internalField   nonuniform List<scalar> 
400
(
1.05403e-06
1.05433e-06
1.05444e-06
1.05403e-06
3.1598e-05
3.1607e-05
3.16104e-05
3.15982e-05
0.000222591
0.000222655
0.000222679
0.000222593
0.00078602
0.000786242
0.000786324
0.000786022
0.0018643
0.0018648
0.00186498
0.00186428
0.00333823
0.00333906
0.00333932
0.00333811
0.00489338
0.00489446
0.00489475
0.00489302
0.00629073
0.00629192
0.00629218
0.00628995
0.00745005
0.00745123
0.00745142
0.00744867
0.00838688
0.00838804
0.00838809
0.00838476
0.00913262
0.00913373
0.00913362
0.00912963
0.00972105
0.00972203
0.00972172
0.00971708
0.0101844
0.0101852
0.0101847
0.0101794
0.0105511
0.0105518
0.010551
0.0105451
0.010845
0.0108459
0.0108447
0.0108383
0.0110858
0.0110869
0.0110854
0.0110785
0.0112877
0.0112893
0.0112872
0.0112797
0.0114604
0.0114625
0.0114599
0.0114518
0.0116116
0.0116141
0.011611
0.0116023
0.011747
0.0117499
0.0117465
0.0117371
0.0118714
0.0118746
0.0118708
0.0118608
0.0119881
0.0119915
0.0119874
0.011977
0.0121
0.0121034
0.0120991
0.0120881
0.0122089
0.0122124
0.0122078
0.0121964
0.0123164
0.0123198
0.0123152
0.0123032
0.0124237
0.0124269
0.0124223
0.0124096
0.0125316
0.0125342
0.0125301
0.0125165
0.0126407
0.0126422
0.012639
0.0126244
0.0127516
0.0127517
0.0127494
0.0127335
0.0128635
0.0128631
0.0128614
0.0128442
0.0129767
0.0129763
0.0129749
0.0129565
0.0130915
0.0130912
0.0130899
0.0130705
0.0132078
0.0132075
0.0132063
0.0131859
0.0133255
0.0133253
0.013324
0.0133028
0.0134444
0.0134442
0.0134429
0.0134209
0.0135643
0.0135641
0.0135627
0.01354
0.0136849
0.0136848
0.0136834
0.0136599
0.0138062
0.013806
0.0138045
0.0137804
0.0139277
0.0139275
0.013926
0.0139012
0.0140493
0.0140491
0.0140476
0.014022
0.0141707
0.0141704
0.0141689
0.0141427
0.0142916
0.0142913
0.0142897
0.0142629
0.0144118
0.0144114
0.0144098
0.0143824
0.014531
0.0145305
0.0145289
0.0145009
0.014649
0.0146483
0.0146468
0.0146183
0.0147655
0.0147646
0.0147631
0.0147341
0.0148804
0.0148791
0.0148776
0.0148483
0.0149935
0.0149915
0.01499
0.0149606
0.0151045
0.0151016
0.0151002
0.0150708
0.0152133
0.0152094
0.015208
0.0151786
0.0153193
0.0153147
0.0153134
0.0152838
0.0154224
0.0154174
0.0154162
0.0153862
0.0155225
0.0155173
0.0155161
0.0154856
0.0156193
0.0156141
0.015613
0.0155819
0.0157128
0.0157076
0.0157065
0.0156749
0.0158027
0.0157976
0.0157966
0.0157643
0.0158891
0.015884
0.0158829
0.0158502
0.0159716
0.0159666
0.0159654
0.0159323
0.0160501
0.0160454
0.0160439
0.0160105
0.0161244
0.0161204
0.0161183
0.0160847
0.0161942
0.0161915
0.0161885
0.0161547
0.0162591
0.0162591
0.0162543
0.0162206
0.0163185
0.0163235
0.0163155
0.0162821
0.0163747
0.0163824
0.0163723
0.0163392
0.0164271
0.016436
0.0164246
0.0163919
0.0164752
0.0164845
0.0164723
0.01644
0.0165186
0.0165281
0.0165154
0.0164835
0.0165574
0.0165667
0.0165538
0.0165225
0.0165913
0.0166004
0.0165874
0.0165568
0.0166204
0.0166292
0.0166164
0.0165865
0.0166449
0.0166532
0.016641
0.0166116
0.0166648
0.0166723
0.0166613
0.016632
0.0166801
0.016686
0.0166773
0.0166479
0.016691
0.0166939
0.0166891
0.0166592
0.0166976
0.016699
0.0166964
0.0166659
0.0166998
0.0167008
0.0166992
0.0166683
0.0166978
0.0166991
0.0166974
0.0166664
0.016692
0.0166938
0.0166911
0.0166602
0.0166827
0.0166854
0.0166806
0.01665
0.0166709
0.0166697
0.0166666
0.0166358
0.0166533
0.0166516
0.0166488
0.0166179
0.0166306
0.0166307
0.0166266
0.0165965
0.0166027
0.0166077
0.0166002
0.0165718
0.0165737
0.016581
0.0165712
0.016544
0.0165435
0.0165496
0.0165402
0.0165133
0.016513
0.0165135
0.0165078
0.0164799
0.0164789
0.0164777
0.016473
0.0164442
0.0164423
0.0164418
0.0164357
0.0164068
0.016404
0.0164065
0.0163964
0.0163678
0.0163644
0.0163674
0.0163562
0.0163275
0.0163238
0.0163258
0.0163154
0.0162864
0.0162822
0.0162832
0.0162741
0.016245
0.0162406
0.0162377
0.0162331
0.0162038
0.0161996
0.0161945
0.0161927
0.0161633
0.0161599
0.0161534
0.0161534
0.0161241
0.0161221
0.016115
0.0161167
0.0160868
0.0160868
0.01608
0.0160836
0.016052
0.0160547
0.0160488
0.0160531
0.0160208
0.0160261
0.0160231
0.0160248
0.015994
0.0160008
0.0160053
0.0160021
0.0159722
)
;

boundaryField
{
    inlet
    {
        type            cyclic;
    }
    outlet
    {
        type            cyclic;
    }
    fixedWalls-bottom
    {
        type            kqRWallFunction;
        value           nonuniform List<scalar> 4(1.05403e-06 1.05433e-06 1.05444e-06 1.05403e-06);
    }
    fixedWalls-top
    {
        type            symmetry;
    }
    frontAndBack
    {
        type            empty;
    }
}


// ************************************************************************* //
