/*--------------------------------*- C++ -*----------------------------------*\
  =========                 |
  \\      /  F ield         | OpenFOAM: The Open Source CFD Toolbox
   \\    /   O peration     | Website:  https://openfoam.org
    \\  /    A nd           | Version:  10
     \\/     M anipulation  |
\*---------------------------------------------------------------------------*/
FoamFile
{
    format      ascii;
    class       volScalarField;
    location    "2500";
    object      omega;
}
// * * * * * * * * * * * * * * * * * * * * * * * * * * * * * * * * * * * * * //

dimensions      [0 0 -1 0 0 0 0];

internalField   nonuniform List<scalar> 
400
(
4078.43
4078.43
4078.43
4078.43
699.41
699.41
699.41
699.41
239.618
239.618
239.618
239.618
118.95
118.949
118.949
118.949
74.1177
74.1152
74.1149
74.1144
52.9367
52.9332
52.9326
52.9325
40.7976
40.7941
40.7936
40.7937
32.8404
32.8378
32.8376
32.8375
27.1633
27.162
27.1619
27.1621
22.8787
22.8786
22.8789
22.8794
19.5263
19.5268
19.5278
19.5286
16.844
16.845
16.8462
16.8478
14.6687
14.6698
14.6713
14.6736
12.8889
12.8898
12.8914
12.8944
11.4178
11.4187
11.4202
11.4236
10.1872
10.188
10.1893
10.1928
9.14765
9.14837
9.14945
9.15295
8.26323
8.26387
8.26481
8.26814
7.50632
7.50687
7.50769
7.51076
6.85514
6.85561
6.85632
6.85906
6.2923
6.29269
6.2933
6.29571
5.80375
5.80406
5.80458
5.80664
5.37797
5.37822
5.37866
5.38037
5.00549
5.00569
5.00605
5.00743
4.67844
4.6786
4.67889
4.67995
4.39025
4.39037
4.3906
4.39136
4.13539
4.13549
4.13565
4.13614
3.90922
3.90929
3.90943
3.90963
3.70782
3.70787
3.70796
3.70791
3.52783
3.52786
3.52789
3.52766
3.36643
3.36643
3.36642
3.36603
3.22119
3.22117
3.22112
3.22059
3.09003
3.09002
3.08993
3.08928
2.97122
2.9712
2.97108
2.97033
2.86321
2.86319
2.86305
2.8622
2.76472
2.76469
2.76453
2.7636
2.6746
2.67457
2.67439
2.67339
2.59187
2.59184
2.59164
2.59058
2.51569
2.51566
2.51545
2.51433
2.44532
2.44529
2.44506
2.4439
2.38012
2.38008
2.37985
2.37865
2.31952
2.31949
2.31924
2.31801
2.26305
2.263
2.26276
2.2615
2.21026
2.21021
2.20997
2.20868
2.16078
2.16072
2.16049
2.15918
2.11428
2.11422
2.11399
2.11266
2.07047
2.0704
2.07019
2.06884
2.0291
2.02902
2.02881
2.02745
1.98992
1.98984
1.98964
1.98826
1.95275
1.95268
1.95247
1.95108
1.9174
1.91734
1.91711
1.91572
1.88372
1.88366
1.88342
1.88203
1.85155
1.85149
1.85125
1.84985
1.82078
1.82072
1.82047
1.81907
1.79128
1.79122
1.79098
1.78957
1.76296
1.76289
1.76266
1.76125
1.73573
1.73564
1.73543
1.73402
1.70952
1.70941
1.70921
1.70779
1.68427
1.68411
1.68392
1.68251
1.65993
1.65968
1.65951
1.65809
1.63631
1.6361
1.6359
1.63448
1.61338
1.61329
1.61305
1.61164
1.59126
1.59117
1.59091
1.58951
1.56982
1.5697
1.56946
1.56804
1.54902
1.54885
1.54864
1.54721
1.52887
1.52859
1.52842
1.52699
1.50921
1.50894
1.50876
1.50733
1.49006
1.48984
1.48965
1.48821
1.47137
1.47127
1.47105
1.46961
1.45326
1.45316
1.45295
1.45152
1.43565
1.43553
1.43533
1.4339
1.41853
1.41836
1.41819
1.41674
1.40192
1.40164
1.40149
1.40004
1.38566
1.38539
1.38523
1.38377
1.36979
1.36957
1.36939
1.36794
1.35427
1.35419
1.35397
1.35253
1.33925
1.33919
1.33896
1.33753
1.32465
1.3246
1.32435
1.32296
1.31046
1.31044
1.31016
1.30879
1.29669
1.29669
1.29639
1.29503
1.28333
1.28336
1.28302
1.28168
1.2704
1.27046
1.27006
1.26875
1.2579
1.25796
1.25753
1.25624
1.24584
1.24587
1.24544
1.24416
1.23422
1.23421
1.23379
1.23251
1.22302
1.22301
1.22261
1.22131
1.21226
1.21225
1.21191
1.21058
1.20201
1.20192
1.20169
1.20032
1.19231
1.19211
1.19199
1.19057
1.18323
1.18286
1.1828
1.18133
1.17458
1.17422
1.17415
1.17265
1.1665
1.16616
1.16607
1.16455
1.15899
1.15872
1.15859
1.15707
1.15205
1.15197
1.15175
1.15025
1.14593
1.1459
1.14559
1.14412
1.14058
1.1406
1.14015
1.13876
1.13605
1.13607
1.13552
1.1342
1.13243
1.13237
1.13181
1.13049
1.12975
1.12962
1.12906
1.12771
1.12811
1.12789
1.12734
1.12595
)
;

boundaryField
{
    inlet
    {
        type            cyclic;
    }
    outlet
    {
        type            cyclic;
    }
    fixedWalls-bottom
    {
        beta1           0.075;
        blended         0;
        type            omegaWallFunction;
        value           uniform 4078.43;
    }
    fixedWalls-top
    {
        type            symmetry;
    }
    frontAndBack
    {
        type            empty;
    }
}


// ************************************************************************* //
