/*--------------------------------*- C++ -*----------------------------------*\
  =========                 |
  \\      /  F ield         | OpenFOAM: The Open Source CFD Toolbox
   \\    /   O peration     | Website:  https://openfoam.org
    \\  /    A nd           | Version:  10
     \\/     M anipulation  |
\*---------------------------------------------------------------------------*/
FoamFile
{
    format      ascii;
    class       surfaceScalarField;
    location    "2500";
    object      phi;
}
// * * * * * * * * * * * * * * * * * * * * * * * * * * * * * * * * * * * * * //

dimensions      [0 3 -1 0 0 0 0];

internalField   nonuniform List<scalar> 
696
(
0.000386365
6.26397e-09
0.000386382
-1.74055e-08
0.000386387
-5.17616e-09
1.71663e-08
0.0011766
1.28312e-08
0.00117664
-6.48472e-08
0.00117665
-1.23429e-08
6.43425e-08
0.0019942
1.57619e-08
0.00199427
-1.38175e-07
0.00199427
-1.52769e-08
1.3746e-07
0.00283113
6.35526e-09
0.00283122
-2.35411e-07
0.00283121
-6.4419e-09
2.34461e-07
0.00366229
-1.87638e-08
0.00366241
-3.49277e-07
0.00366238
1.87039e-08
3.48187e-07
0.00444928
-6.40009e-08
0.00444939
-4.68284e-07
0.00444935
6.34575e-08
4.67009e-07
0.00516407
-1.26743e-07
0.00516418
-5.79218e-07
0.00516412
1.26287e-07
5.77876e-07
0.00580155
-2.08002e-07
0.00580165
-6.77931e-07
0.00580157
2.07162e-07
6.76445e-07
0.00637265
-3.10581e-07
0.00637274
-7.66124e-07
0.00637264
3.09865e-07
7.6461e-07
0.00689034
-4.41672e-07
0.00689042
-8.48021e-07
0.00689029
4.40644e-07
8.46388e-07
0.00736372
-5.99591e-07
0.0073638
-9.21901e-07
0.00736364
5.98712e-07
9.20268e-07
0.00779976
-7.86266e-07
0.00779982
-9.86938e-07
0.00779964
7.85128e-07
9.85203e-07
0.00820414
-9.98274e-07
0.00820419
-1.03904e-06
0.00820398
9.97295e-07
1.03732e-06
0.00858178
-1.23033e-06
0.00858182
-1.07871e-06
0.00858159
1.22913e-06
1.0769e-06
0.00893762
-1.4544e-06
0.00893766
-1.11583e-06
0.00893743
1.45336e-06
1.11404e-06
0.00927636
-1.65455e-06
0.0092764
-1.15772e-06
0.0092762
1.65333e-06
1.15585e-06
0.00960132
-1.8286e-06
0.00960136
-1.19911e-06
0.00960118
1.82754e-06
1.19728e-06
0.00991473
-1.97825e-06
0.00991477
-1.23864e-06
0.00991462
1.97703e-06
1.23673e-06
0.0102185
-2.10262e-06
0.0102185
-1.27195e-06
0.0102184
2.10156e-06
1.27008e-06
0.0105141
-2.20432e-06
0.0105141
-1.29848e-06
0.010514
2.20311e-06
1.29654e-06
0.010803
-2.2844e-06
0.010803
-1.31579e-06
0.0108029
2.28335e-06
1.31388e-06
0.0110862
-2.34672e-06
0.0110862
-1.32519e-06
0.0110862
2.34554e-06
1.32321e-06
0.0113648
-2.39369e-06
0.0113648
-1.32581e-06
0.0113648
2.39267e-06
1.32388e-06
0.0116397
-2.42938e-06
0.0116397
-1.32009e-06
0.0116396
2.42824e-06
1.31809e-06
0.0119115
-2.45636e-06
0.0119115
-1.30787e-06
0.0119115
2.45538e-06
1.30592e-06
0.012181
-2.47719e-06
0.012181
-1.29123e-06
0.0121809
2.47611e-06
1.28921e-06
0.0124487
-2.49317e-06
0.0124487
-1.26937e-06
0.0124486
2.49223e-06
1.26741e-06
0.0127151
-2.50549e-06
0.0127151
-1.24427e-06
0.0127151
2.50446e-06
1.24224e-06
0.0129808
-2.51545e-06
0.0129808
-1.21582e-06
0.0129808
2.51456e-06
1.21384e-06
0.0132461
-2.5227e-06
0.0132461
-1.1853e-06
0.0132461
2.52173e-06
1.18326e-06
0.0135114
-2.52736e-06
0.0135114
-1.15173e-06
0.0135114
2.52652e-06
1.14974e-06
0.013777
-2.52916e-06
0.013777
-1.1164e-06
0.013777
2.52825e-06
1.11435e-06
0.0140432
-2.52927e-06
0.0140432
-1.07905e-06
0.0140432
2.52849e-06
1.07706e-06
0.0143103
-2.5273e-06
0.0143103
-1.04099e-06
0.0143103
2.52646e-06
1.03893e-06
0.0145786
-2.52428e-06
0.0145786
-1.00185e-06
0.0145786
2.52356e-06
9.99846e-07
0.0148482
-2.5195e-06
0.0148482
-9.62615e-07
0.0148482
2.51873e-06
9.60554e-07
0.0151194
-2.51398e-06
0.0151194
-9.22933e-07
0.0151194
2.51333e-06
9.20926e-07
0.0153923
-2.50689e-06
0.0153923
-8.83604e-07
0.0153923
2.50618e-06
8.81542e-07
0.0156672
-2.49915e-06
0.0156672
-8.44284e-07
0.0156672
2.49856e-06
8.42276e-07
0.0159442
-2.48992e-06
0.0159442
-8.0565e-07
0.0159442
2.48928e-06
8.03588e-07
0.0162234
-2.47996e-06
0.0162234
-7.67348e-07
0.0162234
2.47944e-06
7.65341e-07
0.016505
-2.46841e-06
0.016505
-7.29971e-07
0.016505
2.46785e-06
7.27911e-07
0.0167892
-2.45586e-06
0.0167892
-6.93174e-07
0.0167892
2.4554e-06
6.91171e-07
0.017076
-2.44156e-06
0.017076
-6.57556e-07
0.017076
2.44106e-06
6.55502e-07
0.0173656
-2.42593e-06
0.0173656
-6.22817e-07
0.0173656
2.42553e-06
6.2082e-07
0.0176581
-2.40838e-06
0.0176581
-5.89574e-07
0.0176581
2.40796e-06
5.87528e-07
0.0179537
-2.38921e-06
0.0179536
-5.5748e-07
0.0179537
2.38887e-06
5.55491e-07
0.0182523
-2.36813e-06
0.0182523
-5.27041e-07
0.0182523
2.36777e-06
5.25005e-07
0.0185542
-2.34562e-06
0.0185541
-4.9775e-07
0.0185542
2.34535e-06
4.95772e-07
0.0188593
-2.32241e-06
0.0188593
-4.70354e-07
0.0188593
2.32212e-06
4.68332e-07
0.019168
-2.29906e-06
0.0191679
-4.44397e-07
0.019168
2.29885e-06
4.42432e-07
0.0194801
-2.27526e-06
0.01948
-4.19936e-07
0.0194801
2.27503e-06
4.1793e-07
0.0197958
-2.25032e-06
0.0197958
-3.95974e-07
0.0197958
2.25017e-06
3.94027e-07
0.0201152
-2.22401e-06
0.0201152
-3.72804e-07
0.0201152
2.22385e-06
3.70817e-07
0.0204384
-2.19582e-06
0.0204384
-3.49737e-07
0.0204384
2.19573e-06
3.47808e-07
0.0207655
-2.16585e-06
0.0207654
-3.27375e-07
0.0207655
2.16575e-06
3.25411e-07
0.0210965
-2.13362e-06
0.0210965
-3.05079e-07
0.0210965
2.13359e-06
3.03173e-07
0.0214315
-2.09938e-06
0.0214315
-2.83427e-07
0.0214315
2.09934e-06
2.81488e-07
0.0217707
-2.06266e-06
0.0217707
-2.61473e-07
0.0217707
2.06269e-06
2.59593e-07
0.022114
-2.02376e-06
0.022114
-2.39235e-07
0.022114
2.02378e-06
2.37325e-07
0.0224616
-1.98233e-06
0.0224616
-2.15558e-07
0.0224616
1.98242e-06
2.13708e-07
0.0228136
-1.93902e-06
0.0228136
-1.91611e-07
0.0228136
1.9391e-06
1.89734e-07
0.02317
-1.89378e-06
0.0231699
-1.67108e-07
0.02317
1.89392e-06
1.65292e-07
0.0235308
-1.84707e-06
0.0235308
-1.43116e-07
0.0235308
1.8472e-06
1.41276e-07
0.0238962
-1.79861e-06
0.0238962
-1.19487e-07
0.0238963
1.7988e-06
1.17708e-07
0.0242663
-1.74833e-06
0.0242663
-9.70361e-08
0.0242663
1.74852e-06
9.52385e-08
0.024641
-1.69574e-06
0.024641
-7.49523e-08
0.0246411
1.69598e-06
7.32161e-08
0.0250206
-1.64117e-06
0.0250205
-5.40079e-08
0.0250206
1.6414e-06
5.22573e-08
0.0254049
-1.58526e-06
0.0254049
-3.40531e-08
0.0254049
1.58554e-06
3.23658e-08
0.0257942
-1.52898e-06
0.0257941
-1.58105e-08
0.0257942
1.52926e-06
1.41136e-08
0.0261884
-1.47305e-06
0.0261883
1.33942e-09
0.0261884
1.47337e-06
-2.97286e-09
0.0265876
-1.41772e-06
0.0265876
1.72568e-08
0.0265876
1.41804e-06
-1.88948e-08
0.0269919
-1.36313e-06
0.0269919
3.27254e-08
0.0269919
1.36349e-06
-3.42978e-08
0.0274013
-1.30873e-06
0.0274013
4.80164e-08
0.0274014
1.30908e-06
-4.95875e-08
0.0278159
-1.25424e-06
0.0278159
6.31944e-08
0.027816
1.25462e-06
-6.46995e-08
0.0282358
-1.19868e-06
0.0282358
7.79161e-08
0.0282358
1.19906e-06
-7.94132e-08
0.0286609
-1.14207e-06
0.0286609
9.15233e-08
0.028661
1.14247e-06
-9.29514e-08
0.0290914
-1.08368e-06
0.0290913
1.03928e-07
0.0290914
1.08408e-06
-1.0534e-07
0.0295272
-1.02418e-06
0.0295272
1.1442e-07
0.0295272
1.0246e-06
-1.15761e-07
0.0299684
-9.63348e-07
0.0299684
1.23355e-07
0.0299684
9.63755e-07
-1.24673e-07
0.030415
-9.01708e-07
0.030415
1.30258e-07
0.0304151
9.02122e-07
-1.31501e-07
0.0308672
-8.38965e-07
0.0308672
1.35317e-07
0.0308672
8.39368e-07
-1.36526e-07
0.0313248
-7.77281e-07
0.0313248
1.37579e-07
0.0313248
7.77685e-07
-1.38713e-07
0.0317879
-7.17437e-07
0.0317879
1.37434e-07
0.0317879
7.17826e-07
-1.38524e-07
0.0322565
-6.60528e-07
0.0322565
1.34534e-07
0.0322565
6.60912e-07
-1.35545e-07
0.0327306
-6.05763e-07
0.0327306
1.29923e-07
0.0327307
6.06129e-07
-1.30881e-07
0.0332102
-5.52692e-07
0.0332102
1.23175e-07
0.0332103
5.53047e-07
-1.24054e-07
0.0336954
-4.99798e-07
0.0336954
1.14721e-07
0.0336954
5.0013e-07
-1.15539e-07
0.034186
-4.47294e-07
0.034186
1.04305e-07
0.034186
4.47609e-07
-1.05042e-07
0.034682
-3.95097e-07
0.0346821
9.28304e-08
0.0346821
3.95386e-07
-9.35012e-08
0.0351835
-3.44015e-07
0.0351835
7.98067e-08
0.0351836
3.44283e-07
-8.03977e-08
0.0356903
-2.94074e-07
0.0356904
6.59234e-08
0.0356904
2.94312e-07
-6.64438e-08
0.0362025
-2.4571e-07
0.0362025
5.15998e-08
0.0362025
2.45922e-07
-5.20411e-08
0.0367198
-1.99365e-07
0.0367198
3.75489e-08
0.0367198
1.99545e-07
-3.79168e-08
0.0372422
-1.56219e-07
0.0372422
2.44257e-08
0.0372423
1.56368e-07
-2.47144e-08
0.0377696
-1.17009e-07
0.0377696
1.32431e-08
0.0377697
1.17121e-07
-1.34581e-08
0.0383019
-8.23029e-08
0.0383019
4.79078e-09
0.0383019
8.23789e-08
-4.92917e-09
0.0388389
-5.22522e-08
0.0388389
-1.9974e-10
0.0388389
5.22899e-08
1.4011e-10
0.0393803
-2.58763e-08
0.0393803
-1.47869e-09
0.0393803
2.58688e-08
1.48622e-09
0.039926
0.039926
0.039926
)
;

boundaryField
{
    inlet
    {
        type            cyclic;
        value           nonuniform List<scalar> 
100
(
-0.039926
-0.0393803
-0.0388389
-0.0383019
-0.0377697
-0.0372423
-0.0367198
-0.0362025
-0.0356904
-0.0351836
-0.0346821
-0.034186
-0.0336954
-0.0332103
-0.0327307
-0.0322565
-0.0317879
-0.0313248
-0.0308672
-0.0304151
-0.0299685
-0.0295272
-0.0290914
-0.028661
-0.0282358
-0.027816
-0.0274014
-0.0269919
-0.0265876
-0.0261884
-0.0257942
-0.025405
-0.0250206
-0.0246411
-0.0242663
-0.0238963
-0.0235309
-0.02317
-0.0228136
-0.0224617
-0.0221141
-0.0217707
-0.0214316
-0.0210965
-0.0207655
-0.0204384
-0.0201152
-0.0197958
-0.0194801
-0.019168
-0.0188594
-0.0185542
-0.0182523
-0.0179537
-0.0176582
-0.0173657
-0.017076
-0.0167892
-0.0165051
-0.0162234
-0.0159442
-0.0156672
-0.0153923
-0.0151194
-0.0148482
-0.0145786
-0.0143103
-0.0140432
-0.013777
-0.0135114
-0.0132461
-0.0129808
-0.0127151
-0.0124487
-0.012181
-0.0119115
-0.0116396
-0.0113648
-0.0110862
-0.0108029
-0.010514
-0.0102184
-0.00991458
-0.00960114
-0.00927616
-0.00893739
-0.00858155
-0.00820393
-0.00779957
-0.00736356
-0.00689021
-0.00637255
-0.00580147
-0.00516401
-0.00444923
-0.00366227
-0.00283112
-0.0019942
-0.0011766
-0.00038637
)
;
    }
    outlet
    {
        type            cyclic;
        value           nonuniform List<scalar> 
100
(
0.039926
0.0393803
0.0388389
0.0383019
0.0377697
0.0372423
0.0367198
0.0362025
0.0356904
0.0351836
0.0346821
0.034186
0.0336954
0.0332103
0.0327307
0.0322565
0.0317879
0.0313248
0.0308672
0.0304151
0.0299685
0.0295272
0.0290914
0.028661
0.0282358
0.027816
0.0274014
0.0269919
0.0265876
0.0261884
0.0257942
0.025405
0.0250206
0.0246411
0.0242663
0.0238963
0.0235309
0.02317
0.0228136
0.0224617
0.0221141
0.0217707
0.0214316
0.0210965
0.0207655
0.0204384
0.0201152
0.0197958
0.0194801
0.019168
0.0188594
0.0185542
0.0182523
0.0179537
0.0176582
0.0173657
0.017076
0.0167892
0.0165051
0.0162234
0.0159442
0.0156672
0.0153923
0.0151194
0.0148482
0.0145786
0.0143103
0.0140432
0.013777
0.0135114
0.0132461
0.0129808
0.0127151
0.0124487
0.012181
0.0119115
0.0116396
0.0113648
0.0110862
0.0108029
0.010514
0.0102184
0.00991458
0.00960114
0.00927616
0.00893739
0.00858155
0.00820393
0.00779957
0.00736356
0.00689021
0.00637255
0.00580147
0.00516401
0.00444923
0.00366227
0.00283112
0.0019942
0.0011766
0.00038637
)
;
    }
    fixedWalls-bottom
    {
        type            calculated;
        value           uniform 0;
    }
    fixedWalls-top
    {
        type            symmetry;
        value           uniform 0;
    }
    frontAndBack
    {
        type            empty;
        value           nonuniform List<scalar> 0();
    }
}


// ************************************************************************* //
