/*--------------------------------*- C++ -*----------------------------------*\
  =========                 |
  \\      /  F ield         | OpenFOAM: The Open Source CFD Toolbox
   \\    /   O peration     | Website:  https://openfoam.org
    \\  /    A nd           | Version:  10
     \\/     M anipulation  |
\*---------------------------------------------------------------------------*/
FoamFile
{
    format      ascii;
    class       volSymmTensorField;
    location    "2500";
    object      R;
}
// * * * * * * * * * * * * * * * * * * * * * * * * * * * * * * * * * * * * * //

dimensions      [0 2 -2 0 0 0 0];

internalField   nonuniform List<symmTensor> 
400
(
(7.02684e-07 -4.67778e-09 -0 7.02684e-07 -0 7.02684e-07)
(7.02885e-07 -4.67919e-09 -0 7.02885e-07 -0 7.02885e-07)
(7.02961e-07 -4.67998e-09 -0 7.02961e-07 -0 7.02961e-07)
(7.02689e-07 -4.67794e-09 -0 7.02689e-07 -0 7.02689e-07)
(2.10653e-05 -8.12397e-07 -0 2.10653e-05 -0 2.10653e-05)
(2.10713e-05 -8.12645e-07 -0 2.10713e-05 -0 2.10713e-05)
(2.10736e-05 -8.12772e-07 -0 2.10736e-05 -0 2.10736e-05)
(2.10655e-05 -8.12414e-07 -0 2.10655e-05 -0 2.10655e-05)
(0.000148394 -1.64903e-05 -0 0.000148394 -0 0.000148394)
(0.000148437 -1.64954e-05 -0 0.000148437 -0 0.000148437)
(0.000148453 -1.64978e-05 -0 0.000148453 -0 0.000148453)
(0.000148395 -1.64905e-05 -0 0.000148395 -0 0.000148395)
(0.000524013 -0.000113396 -0 0.000524014 -0 0.000524013)
(0.000524161 -0.000113432 -0 0.000524162 -0 0.000524162)
(0.000524216 -0.000113447 -0 0.000524216 -0 0.000524216)
(0.000524015 -0.000113397 -0 0.000524015 -0 0.000524015)
(0.00124287 -0.000400595 -0 0.00124287 -0 0.00124287)
(0.0012432 -0.000400724 -0 0.0012432 -0 0.0012432)
(0.00124332 -0.000400767 -0 0.00124332 -0 0.00124332)
(0.00124286 -0.000400598 -0 0.00124285 -0 0.00124286)
(0.00222548 -0.000887839 -0 0.00222549 -0 0.00222548)
(0.00222604 -0.00088812 -0 0.00222604 -0 0.00222604)
(0.00222622 -0.000888192 -0 0.00222622 -0 0.00222622)
(0.00222541 -0.000887833 -0 0.00222541 -0 0.00222541)
(0.00326225 -0.00144029 -0 0.00326226 -0 0.00326225)
(0.00326297 -0.00144071 -0 0.00326298 -0 0.00326297)
(0.00326317 -0.00144078 -0 0.00326317 -0 0.00326317)
(0.00326202 -0.00144022 -0 0.00326201 -0 0.00326201)
(0.00419382 -0.00193748 -0 0.00419383 -0 0.00419382)
(0.0041946 -0.00193796 -0 0.00419462 -0 0.00419461)
(0.00419479 -0.001938 -0 0.00419478 -0 0.00419479)
(0.00419331 -0.00193724 -0 0.00419329 -0 0.0041933)
(0.00496669 -0.00230951 -0 0.00496671 -0 0.0049667)
(0.00496748 -0.00230988 -0 0.0049675 -0 0.00496749)
(0.00496762 -0.00230994 -0 0.0049676 -0 0.00496761)
(0.00496579 -0.00230909 -0 0.00496577 -0 0.00496578)
(0.00559123 -0.00259993 -0 0.00559127 -0 0.00559125)
(0.00559201 -0.00260029 -0 0.00559204 -0 0.00559202)
(0.00559208 -0.00260031 -0 0.00559205 -0 0.00559206)
(0.00558985 -0.00259928 -0 0.00558983 -0 0.00558984)
(0.00608838 -0.00283112 -0 0.00608844 -0 0.00608841)
(0.00608914 -0.00283147 -0 0.00608917 -0 0.00608916)
(0.00608911 -0.00283143 -0 0.00608906 -0 0.00608908)
(0.00608643 -0.00283019 -0 0.0060864 -0 0.00608642)
(0.00648066 -0.00301356 -0 0.00648074 -0 0.0064807)
(0.00648134 -0.00301386 -0 0.00648137 -0 0.00648135)
(0.00648119 -0.00301377 -0 0.00648111 -0 0.00648115)
(0.00647807 -0.00301233 -0 0.00647804 -0 0.00647806)
(0.00678957 -0.00315722 -0 0.00678968 -0 0.00678963)
(0.00679012 -0.00315745 -0 0.00679015 -0 0.00679014)
(0.00678984 -0.00315729 -0 0.00678973 -0 0.00678979)
(0.00678629 -0.00315566 -0 0.00678626 -0 0.00678628)
(0.00703402 -0.00327086 -0 0.00703416 -0 0.00703409)
(0.00703451 -0.00327106 -0 0.00703454 -0 0.00703452)
(0.00703407 -0.00327082 -0 0.00703394 -0 0.007034)
(0.00703011 -0.00326901 -0 0.00703009 -0 0.0070301)
(0.00722992 -0.00335205 -0 0.00723007 -0 0.00723)
(0.00723056 -0.00335202 -0 0.00723058 -0 0.00723057)
(0.00722991 -0.00335131 -0 0.00722975 -0 0.00722983)
(0.00722556 -0.00334884 -0 0.00722554 -0 0.00722555)
(0.00739044 -0.00339479 -0 0.00739059 -0 0.00739052)
(0.00739128 -0.00339479 -0 0.00739131 -0 0.00739129)
(0.00739037 -0.00339406 -0 0.00739021 -0 0.00739029)
(0.00738566 -0.00339153 -0 0.00738563 -0 0.00738565)
(0.00752504 -0.00342402 -0 0.00752519 -0 0.00752512)
(0.0075262 -0.00342407 -0 0.00752623 -0 0.00752621)
(0.00752489 -0.00342315 -0 0.00752474 -0 0.00752481)
(0.00751981 -0.00342045 -0 0.00751978 -0 0.00751979)
(0.0076402 -0.00343831 -0 0.00764034 -0 0.00764027)
(0.00764165 -0.00343841 -0 0.00764169 -0 0.00764167)
(0.00764 -0.00343732 -0 0.00763986 -0 0.00763993)
(0.00763452 -0.0034345 -0 0.00763449 -0 0.0076345)
(0.00774098 -0.00344016 -0 0.00774111 -0 0.00774104)
(0.00774268 -0.0034403 -0 0.00774272 -0 0.0077427)
(0.00774075 -0.00343908 -0 0.00774062 -0 0.00774069)
(0.00773486 -0.00343615 -0 0.00773483 -0 0.00773484)
(0.0078313 -0.00343155 -0 0.00783142 -0 0.00783136)
(0.00783325 -0.00343176 -0 0.00783328 -0 0.00783327)
(0.00783104 -0.00343041 -0 0.00783093 -0 0.00783098)
(0.00782476 -0.0034274 -0 0.00782473 -0 0.00782474)
(0.00791422 -0.00341415 -0 0.00791432 -0 0.00791427)
(0.00791637 -0.00341446 -0 0.0079164 -0 0.00791639)
(0.0079139 -0.003413 -0 0.0079138 -0 0.00791385)
(0.00790724 -0.00340991 -0 0.00790722 -0 0.00790723)
(0.00799206 -0.00338934 -0 0.00799214 -0 0.0079921)
(0.00799434 -0.00338974 -0 0.00799435 -0 0.00799435)
(0.00799165 -0.0033882 -0 0.00799156 -0 0.0079916)
(0.00798465 -0.00338504 -0 0.00798464 -0 0.00798464)
(0.00806661 -0.00335827 -0 0.00806668 -0 0.00806665)
(0.00806895 -0.00335878 -0 0.00806896 -0 0.00806895)
(0.00806608 -0.00335718 -0 0.00806601 -0 0.00806605)
(0.00805875 -0.00335397 -0 0.00805875 -0 0.00805875)
(0.00813923 -0.00332196 -0 0.00813928 -0 0.00813926)
(0.00814158 -0.00332256 -0 0.00814157 -0 0.00814157)
(0.00813857 -0.00332093 -0 0.00813851 -0 0.00813854)
(0.0081309 -0.00331767 -0 0.00813091 -0 0.00813091)
(0.00821092 -0.00328127 -0 0.00821097 -0 0.00821094)
(0.00821322 -0.00328193 -0 0.0082132 -0 0.00821321)
(0.00821015 -0.00328031 -0 0.0082101 -0 0.00821013)
(0.00820209 -0.00327702 -0 0.00820211 -0 0.0082021)
(0.00828244 -0.00323695 -0 0.00828248 -0 0.00828246)
(0.0082846 -0.00323761 -0 0.00828457 -0 0.00828458)
(0.00828158 -0.00323605 -0 0.00828154 -0 0.00828156)
(0.00827305 -0.00323275 -0 0.00827308 -0 0.00827307)
(0.00835436 -0.00318966 -0 0.00835439 -0 0.00835437)
(0.00835617 -0.00319023 -0 0.00835613 -0 0.00835615)
(0.00835341 -0.00318884 -0 0.00835338 -0 0.0083534)
(0.00834431 -0.0031855 -0 0.00834435 -0 0.00834433)
(0.00842711 -0.00314 -0 0.00842713 -0 0.00842712)
(0.00842818 -0.00314034 -0 0.00842813 -0 0.00842815)
(0.00842603 -0.00313924 -0 0.00842601 -0 0.00842602)
(0.00841621 -0.00313584 -0 0.00841626 -0 0.00841623)
(0.00850105 -0.00308853 -0 0.00850107 -0 0.00850106)
(0.00850113 -0.0030885 -0 0.00850108 -0 0.00850111)
(0.00849963 -0.00308774 -0 0.00849961 -0 0.00849962)
(0.00848899 -0.00308424 -0 0.00848905 -0 0.00848902)
(0.00857564 -0.00303545 -0 0.00857565 -0 0.00857564)
(0.00857544 -0.00303525 -0 0.00857537 -0 0.0085754)
(0.00857428 -0.00303476 -0 0.00857426 -0 0.00857427)
(0.00856278 -0.00303114 -0 0.00856285 -0 0.00856281)
(0.00865116 -0.00298115 -0 0.00865117 -0 0.00865116)
(0.00865092 -0.00298094 -0 0.00865085 -0 0.00865088)
(0.00864994 -0.0029806 -0 0.00864993 -0 0.00864993)
(0.00863765 -0.00297693 -0 0.00863772 -0 0.00863769)
(0.00872769 -0.00292601 -0 0.0087277 -0 0.00872769)
(0.00872749 -0.00292587 -0 0.00872741 -0 0.00872745)
(0.00872658 -0.00292561 -0 0.00872658 -0 0.00872658)
(0.0087136 -0.00292192 -0 0.00871368 -0 0.00871364)
(0.00880522 -0.00287036 -0 0.00880522 -0 0.00880522)
(0.00880507 -0.00287029 -0 0.00880498 -0 0.00880503)
(0.00880418 -0.00287007 -0 0.00880418 -0 0.00880418)
(0.00879057 -0.00286639 -0 0.00879066 -0 0.00879061)
(0.00888366 -0.00281444 -0 0.00888366 -0 0.00888366)
(0.00888356 -0.00281443 -0 0.00888346 -0 0.00888351)
(0.00888265 -0.00281423 -0 0.00888265 -0 0.00888265)
(0.00886848 -0.0028106 -0 0.00886857 -0 0.00886852)
(0.00896292 -0.00275847 -0 0.00896291 -0 0.00896292)
(0.00896283 -0.0027585 -0 0.00896273 -0 0.00896278)
(0.0089619 -0.00275833 -0 0.00896191 -0 0.00896191)
(0.0089472 -0.00275474 -0 0.0089473 -0 0.00894725)
(0.00904285 -0.00270262 -0 0.00904284 -0 0.00904284)
(0.00904277 -0.00270268 -0 0.00904267 -0 0.00904272)
(0.00904181 -0.00270253 -0 0.00904182 -0 0.00904182)
(0.00902661 -0.002699 -0 0.00902671 -0 0.00902666)
(0.00912331 -0.00264704 -0 0.00912329 -0 0.0091233)
(0.00912323 -0.00264712 -0 0.00912312 -0 0.00912318)
(0.00912224 -0.002647 -0 0.00912225 -0 0.00912224)
(0.00910655 -0.00264353 -0 0.00910665 -0 0.0091066)
(0.00920413 -0.00259187 -0 0.00920411 -0 0.00920412)
(0.00920404 -0.00259197 -0 0.00920394 -0 0.00920399)
(0.00920302 -0.00259188 -0 0.00920304 -0 0.00920303)
(0.00918687 -0.00258846 -0 0.00918697 -0 0.00918692)
(0.00928516 -0.00253722 -0 0.00928514 -0 0.00928515)
(0.00928506 -0.00253733 -0 0.00928495 -0 0.009285)
(0.00928401 -0.00253726 -0 0.00928403 -0 0.00928402)
(0.0092674 -0.0025339 -0 0.00926751 -0 0.00926745)
(0.00936622 -0.00248317 -0 0.00936619 -0 0.00936621)
(0.0093661 -0.00248328 -0 0.00936599 -0 0.00936604)
(0.00936503 -0.00248324 -0 0.00936505 -0 0.00936504)
(0.00934797 -0.00247994 -0 0.00934808 -0 0.00934802)
(0.00944714 -0.0024298 -0 0.00944711 -0 0.00944712)
(0.00944699 -0.00242992 -0 0.00944688 -0 0.00944694)
(0.00944591 -0.00242989 -0 0.00944593 -0 0.00944592)
(0.00942841 -0.00242666 -0 0.00942852 -0 0.00942846)
(0.00952774 -0.00237717 -0 0.00952771 -0 0.00952773)
(0.00952757 -0.00237728 -0 0.00952746 -0 0.00952751)
(0.00952647 -0.00237728 -0 0.0095265 -0 0.00952648)
(0.00950854 -0.00237411 -0 0.00950866 -0 0.0095086)
(0.00960787 -0.00232532 -0 0.00960783 -0 0.00960785)
(0.00960765 -0.00232543 -0 0.00960753 -0 0.00960759)
(0.00960654 -0.00232544 -0 0.00960658 -0 0.00960656)
(0.00958821 -0.00232234 -0 0.00958832 -0 0.00958827)
(0.00968734 -0.00227429 -0 0.0096873 -0 0.00968732)
(0.00968705 -0.00227438 -0 0.00968694 -0 0.00968699)
(0.00968594 -0.00227442 -0 0.00968598 -0 0.00968596)
(0.00966723 -0.00227138 -0 0.00966735 -0 0.00966729)
(0.00976601 -0.0022241 -0 0.00976596 -0 0.00976598)
(0.0097656 -0.00222417 -0 0.00976549 -0 0.00976554)
(0.00976449 -0.00222423 -0 0.00976454 -0 0.00976452)
(0.00974545 -0.00222126 -0 0.00974556 -0 0.00974551)
(0.00984372 -0.00217477 -0 0.00984366 -0 0.00984369)
(0.00984312 -0.0021748 -0 0.00984301 -0 0.00984307)
(0.00984202 -0.00217489 -0 0.00984208 -0 0.00984205)
(0.00982271 -0.00217199 -0 0.00982282 -0 0.00982276)
(0.00992033 -0.00212631 -0 0.00992026 -0 0.0099203)
(0.00991944 -0.00212628 -0 0.00991933 -0 0.00991938)
(0.00991835 -0.00212639 -0 0.00991842 -0 0.00991839)
(0.00989884 -0.00212357 -0 0.00989895 -0 0.0098989)
(0.00999571 -0.00207872 -0 0.00999564 -0 0.00999567)
(0.00999438 -0.00207862 -0 0.00999428 -0 0.00999433)
(0.00999332 -0.00207872 -0 0.00999339 -0 0.00999335)
(0.00997371 -0.002076 -0 0.00997381 -0 0.00997376)
(0.0100697 -0.00203196 -0 0.0100697 -0 0.0100697)
(0.0100678 -0.00203181 -0 0.0100677 -0 0.0100678)
(0.0100668 -0.00203187 -0 0.0100668 -0 0.0100668)
(0.0100472 -0.00202928 -0 0.0100473 -0 0.0100472)
(0.0101422 -0.00198602 -0 0.0101421 -0 0.0101422)
(0.0101396 -0.00198584 -0 0.0101395 -0 0.0101396)
(0.0101386 -0.00198583 -0 0.0101387 -0 0.0101387)
(0.010119 -0.00198338 -0 0.0101191 -0 0.0101191)
(0.0102129 -0.00194089 -0 0.0102128 -0 0.0102129)
(0.0102098 -0.00194065 -0 0.0102098 -0 0.0102098)
(0.0102089 -0.00194062 -0 0.010209 -0 0.0102089)
(0.0101892 -0.00193829 -0 0.0101893 -0 0.0101892)
(0.0102817 -0.00189656 -0 0.0102816 -0 0.0102816)
(0.0102783 -0.00189621 -0 0.0102782 -0 0.0102783)
(0.0102774 -0.00189623 -0 0.0102775 -0 0.0102774)
(0.0102574 -0.00189397 -0 0.0102575 -0 0.0102575)
(0.0103484 -0.00185296 -0 0.0103483 -0 0.0103483)
(0.0103449 -0.00185254 -0 0.0103448 -0 0.0103449)
(0.010344 -0.00185261 -0 0.0103441 -0 0.0103441)
(0.0103237 -0.00185041 -0 0.0103238 -0 0.0103238)
(0.0104129 -0.00181007 -0 0.0104128 -0 0.0104129)
(0.0104095 -0.00180963 -0 0.0104094 -0 0.0104094)
(0.0104086 -0.00180973 -0 0.0104087 -0 0.0104086)
(0.0103879 -0.00180757 -0 0.010388 -0 0.0103879)
(0.0104752 -0.00176786 -0 0.0104751 -0 0.0104752)
(0.0104718 -0.00176742 -0 0.0104717 -0 0.0104717)
(0.010471 -0.00176754 -0 0.0104711 -0 0.010471)
(0.0104499 -0.00176541 -0 0.0104499 -0 0.0104499)
(0.0105352 -0.0017263 -0 0.0105351 -0 0.0105352)
(0.0105318 -0.00172588 -0 0.0105317 -0 0.0105318)
(0.010531 -0.001726 -0 0.0105311 -0 0.010531)
(0.0105095 -0.00172391 -0 0.0105096 -0 0.0105096)
(0.0105928 -0.00168535 -0 0.0105926 -0 0.0105927)
(0.0105894 -0.00168495 -0 0.0105893 -0 0.0105893)
(0.0105885 -0.00168507 -0 0.0105887 -0 0.0105886)
(0.0105668 -0.00168301 -0 0.0105668 -0 0.0105668)
(0.0106478 -0.00164497 -0 0.0106476 -0 0.0106477)
(0.0106445 -0.0016446 -0 0.0106444 -0 0.0106444)
(0.0106436 -0.0016447 -0 0.0106437 -0 0.0106436)
(0.0106215 -0.00164269 -0 0.0106216 -0 0.0106215)
(0.0107001 -0.00160512 -0 0.0107 -0 0.0107)
(0.010697 -0.00160479 -0 0.0106969 -0 0.010697)
(0.0106959 -0.00160484 -0 0.010696 -0 0.010696)
(0.0106736 -0.0016029 -0 0.0106737 -0 0.0106737)
(0.0107496 -0.00156569 -0 0.0107495 -0 0.0107496)
(0.010747 -0.00156548 -0 0.0107469 -0 0.0107469)
(0.0107455 -0.00156547 -0 0.0107456 -0 0.0107456)
(0.0107231 -0.00156359 -0 0.0107232 -0 0.0107231)
(0.0107962 -0.00152671 -0 0.010796 -0 0.0107961)
(0.0107944 -0.00152662 -0 0.0107943 -0 0.0107944)
(0.0107923 -0.00152652 -0 0.0107924 -0 0.0107923)
(0.0107698 -0.00152472 -0 0.0107699 -0 0.0107698)
(0.0108395 -0.00148808 -0 0.0108393 -0 0.0108394)
(0.0108394 -0.00148821 -0 0.0108394 -0 0.0108394)
(0.0108361 -0.00148795 -0 0.0108363 -0 0.0108362)
(0.0108137 -0.00148623 -0 0.0108138 -0 0.0108137)
(0.0108791 -0.00144963 -0 0.0108789 -0 0.010879)
(0.0108824 -0.00145024 -0 0.0108823 -0 0.0108823)
(0.0108769 -0.00144972 -0 0.0108771 -0 0.010877)
(0.0108547 -0.00144809 -0 0.0108548 -0 0.0108547)
(0.0109166 -0.00141158 -0 0.0109164 -0 0.0109165)
(0.0109217 -0.00141248 -0 0.0109216 -0 0.0109216)
(0.0109148 -0.00141177 -0 0.010915 -0 0.0109149)
(0.0108928 -0.00141024 -0 0.0108928 -0 0.0108928)
(0.0109515 -0.00137384 -0 0.0109513 -0 0.0109514)
(0.0109574 -0.00137487 -0 0.0109573 -0 0.0109574)
(0.0109496 -0.00137407 -0 0.0109498 -0 0.0109497)
(0.0109279 -0.00137264 -0 0.0109279 -0 0.0109279)
(0.0109835 -0.00133629 -0 0.0109834 -0 0.0109834)
(0.0109897 -0.00133741 -0 0.0109897 -0 0.0109897)
(0.0109815 -0.00133656 -0 0.0109817 -0 0.0109816)
(0.0109599 -0.00133523 -0 0.01096 -0 0.01096)
(0.0110125 -0.00129897 -0 0.0110123 -0 0.0110124)
(0.0110188 -0.00130004 -0 0.0110187 -0 0.0110187)
(0.0110102 -0.00129919 -0 0.0110104 -0 0.0110103)
(0.010989 -0.00129796 -0 0.0109891 -0 0.010989)
(0.0110383 -0.00126173 -0 0.0110381 -0 0.0110382)
(0.0110445 -0.00126277 -0 0.0110444 -0 0.0110445)
(0.0110357 -0.00126192 -0 0.0110359 -0 0.0110358)
(0.011015 -0.00126078 -0 0.011015 -0 0.011015)
(0.011061 -0.00122459 -0 0.0110608 -0 0.0110609)
(0.011067 -0.00122554 -0 0.0110669 -0 0.0110669)
(0.0110582 -0.00122471 -0 0.0110584 -0 0.0110583)
(0.0110379 -0.00122364 -0 0.0110379 -0 0.0110379)
(0.0110804 -0.00118739 -0 0.0110802 -0 0.0110803)
(0.0110862 -0.00118831 -0 0.0110861 -0 0.0110862)
(0.0110775 -0.00118749 -0 0.0110777 -0 0.0110776)
(0.0110577 -0.00118647 -0 0.0110577 -0 0.0110577)
(0.0110967 -0.00115012 -0 0.0110965 -0 0.0110966)
(0.0111022 -0.00115098 -0 0.0111021 -0 0.0111022)
(0.0110939 -0.00115021 -0 0.0110941 -0 0.011094)
(0.0110744 -0.00114924 -0 0.0110744 -0 0.0110744)
(0.01111 -0.0011127 -0 0.0111098 -0 0.0111099)
(0.0111149 -0.00111348 -0 0.0111148 -0 0.0111149)
(0.0111074 -0.00111282 -0 0.0111076 -0 0.0111075)
(0.011088 -0.00111188 -0 0.0110881 -0 0.011088)
(0.0111202 -0.00107506 -0 0.01112 -0 0.0111201)
(0.0111241 -0.00107574 -0 0.011124 -0 0.011124)
(0.0111181 -0.00107525 -0 0.0111183 -0 0.0111182)
(0.0110986 -0.00107435 -0 0.0110986 -0 0.0110986)
(0.0111275 -0.00103722 -0 0.0111273 -0 0.0111274)
(0.0111293 -0.00103766 -0 0.0111292 -0 0.0111293)
(0.011126 -0.00103745 -0 0.0111262 -0 0.0111261)
(0.0111061 -0.00103659 -0 0.0111061 -0 0.0111061)
(0.0111318 -0.000999085 -0 0.0111316 -0 0.0111317)
(0.0111327 -0.000999394 -0 0.0111327 -0 0.0111327)
(0.0111309 -0.000999346 -0 0.0111311 -0 0.011131)
(0.0111106 -0.000998529 -0 0.0111106 -0 0.0111106)
(0.0111333 -0.000960647 -0 0.0111331 -0 0.0111332)
(0.0111339 -0.000960856 -0 0.0111339 -0 0.0111339)
(0.0111327 -0.000960898 -0 0.0111329 -0 0.0111328)
(0.0111122 -0.000960124 -0 0.0111122 -0 0.0111122)
(0.011132 -0.000921777 -0 0.0111318 -0 0.0111319)
(0.0111327 -0.000921994 -0 0.0111327 -0 0.0111327)
(0.0111315 -0.00092205 -0 0.0111317 -0 0.0111316)
(0.0111109 -0.000921312 -0 0.0111109 -0 0.0111109)
(0.0111281 -0.000882489 -0 0.0111279 -0 0.011128)
(0.0111292 -0.000882723 -0 0.0111292 -0 0.0111292)
(0.0111273 -0.00088275 -0 0.0111275 -0 0.0111274)
(0.0111068 -0.000882033 -0 0.0111069 -0 0.0111068)
(0.0111219 -0.00084274 -0 0.0111217 -0 0.0111218)
(0.0111236 -0.000842984 -0 0.0111236 -0 0.0111236)
(0.0111203 -0.000842944 -0 0.0111205 -0 0.0111204)
(0.0111 -0.00084223 -0 0.0111 -0 0.0111)
(0.0111141 -0.000802494 -0 0.0111138 -0 0.0111139)
(0.0111132 -0.00080248 -0 0.0111131 -0 0.0111131)
(0.0111109 -0.000802591 -0 0.0111111 -0 0.011111)
(0.0110905 -0.000801844 -0 0.0110906 -0 0.0110906)
(0.0111023 -0.000761481 -0 0.0111021 -0 0.0111022)
(0.0111011 -0.000761399 -0 0.011101 -0 0.011101)
(0.0110991 -0.000761587 -0 0.0110993 -0 0.0110992)
(0.0110786 -0.000760817 -0 0.0110786 -0 0.0110786)
(0.0110872 -0.000719656 -0 0.011087 -0 0.0110871)
(0.0110871 -0.000719702 -0 0.0110871 -0 0.0110871)
(0.0110843 -0.000719817 -0 0.0110845 -0 0.0110844)
(0.0110643 -0.000719093 -0 0.0110643 -0 0.0110643)
(0.0110686 -0.000676979 -0 0.0110684 -0 0.0110685)
(0.0110718 -0.000677326 -0 0.0110718 -0 0.0110718)
(0.0110667 -0.000677232 -0 0.0110669 -0 0.0110668)
(0.0110479 -0.000676607 -0 0.0110479 -0 0.0110479)
(0.0110492 -0.000633584 -0 0.011049 -0 0.0110491)
(0.011054 -0.000634061 -0 0.011054 -0 0.011054)
(0.0110473 -0.000633844 -0 0.0110476 -0 0.0110475)
(0.0110293 -0.000633285 -0 0.0110293 -0 0.0110293)
(0.0110291 -0.000589384 -0 0.0110289 -0 0.011029)
(0.011033 -0.000589775 -0 0.011033 -0 0.011033)
(0.0110267 -0.000589601 -0 0.0110269 -0 0.0110268)
(0.0110089 -0.00058906 -0 0.0110088 -0 0.0110088)
(0.0110088 -0.000544299 -0 0.0110086 -0 0.0110087)
(0.011009 -0.000544413 -0 0.011009 -0 0.011009)
(0.0110051 -0.000544411 -0 0.0110053 -0 0.0110052)
(0.0109866 -0.00054387 -0 0.0109866 -0 0.0109866)
(0.010986 -0.000498089 -0 0.0109858 -0 0.0109859)
(0.0109851 -0.000498099 -0 0.0109851 -0 0.0109851)
(0.0109819 -0.000498154 -0 0.0109821 -0 0.010982)
(0.0109628 -0.000497649 -0 0.0109628 -0 0.0109628)
(0.0109616 -0.000450724 -0 0.0109615 -0 0.0109615)
(0.0109612 -0.000450771 -0 0.0109612 -0 0.0109612)
(0.010957 -0.00045075 -0 0.0109572 -0 0.0109571)
(0.0109379 -0.000450327 -0 0.0109378 -0 0.0109379)
(0.0109361 -0.000402175 -0 0.0109359 -0 0.010936)
(0.0109376 -0.000402339 -0 0.0109377 -0 0.0109377)
(0.0109308 -0.000402165 -0 0.010931 -0 0.0109309)
(0.0109119 -0.000401829 -0 0.0109118 -0 0.0109118)
(0.0109097 -0.000352353 -0 0.0109095 -0 0.0109096)
(0.0109116 -0.000352578 -0 0.0109116 -0 0.0109116)
(0.0109041 -0.000352361 -0 0.0109043 -0 0.0109042)
(0.010885 -0.000352074 -0 0.010885 -0 0.010885)
(0.0108826 -0.000301243 -0 0.0108825 -0 0.0108826)
(0.0108839 -0.000301424 -0 0.0108839 -0 0.0108839)
(0.0108768 -0.000301244 -0 0.010877 -0 0.0108769)
(0.0108577 -0.000300986 -0 0.0108576 -0 0.0108576)
(0.0108549 -0.000248734 -0 0.0108547 -0 0.0108548)
(0.0108554 -0.000248844 -0 0.0108555 -0 0.0108555)
(0.0108493 -0.00024872 -0 0.0108495 -0 0.0108494)
(0.0108301 -0.000248482 -0 0.01083 -0 0.01083)
(0.0108271 -0.000194727 -0 0.010827 -0 0.0108271)
(0.0108251 -0.000194736 -0 0.0108251 -0 0.0108251)
(0.010822 -0.000194694 -0 0.0108221 -0 0.0108221)
(0.0108025 -0.000194471 -0 0.0108025 -0 0.0108025)
(0.0107998 -0.000139114 -0 0.0107997 -0 0.0107997)
(0.0107963 -0.000139078 -0 0.0107964 -0 0.0107963)
(0.0107951 -0.000139051 -0 0.0107952 -0 0.0107951)
(0.0107755 -0.000138848 -0 0.0107755 -0 0.0107755)
(0.0107733 -8.17588e-05 -0 0.0107732 -0 0.0107733)
(0.0107689 -8.17189e-05 -0 0.010769 -0 0.0107689)
(0.0107689 -8.16713e-05 -0 0.010769 -0 0.010769)
(0.0107494 -8.14897e-05 -0 0.0107494 -0 0.0107494)
(0.0107481 -2.25235e-05 -0 0.010748 -0 0.0107481)
(0.0107433 -2.24806e-05 -0 0.0107434 -0 0.0107433)
(0.0107444 -2.24084e-05 -0 0.0107445 -0 0.0107444)
(0.0107246 -2.22479e-05 -0 0.0107245 -0 0.0107245)
(0.0107246 3.87819e-05 -0 0.0107245 -0 0.0107245)
(0.01072 3.8819e-05 -0 0.01072 -0 0.01072)
(0.0107224 3.89376e-05 -0 0.0107225 -0 0.0107224)
(0.0107014 3.90496e-05 -0 0.0107013 -0 0.0107013)
(0.0107032 0.000102221 -0 0.0107031 -0 0.0107031)
(0.0106992 0.000102259 -0 0.0106992 -0 0.0106992)
(0.010702 0.000102428 -0 0.0107021 -0 0.0107021)
(0.0106805 0.000102457 -0 0.0106805 -0 0.0106805)
(0.0106841 0.000168043 -0 0.010684 -0 0.0106841)
(0.0106821 0.000168114 -0 0.0106821 -0 0.0106821)
(0.0106832 0.000168277 -0 0.0106833 -0 0.0106832)
(0.0106627 0.000168218 -0 0.0106627 -0 0.0106627)
(0.0106672 0.000100697 -0 0.0106671 -0 0.0106672)
(0.0106702 0.00010079 -0 0.0106702 -0 0.0106702)
(0.010668 0.000100837 -0 0.0106681 -0 0.0106681)
(0.0106481 0.000100787 -0 0.0106481 -0 0.0106481)
)
;

boundaryField
{
    inlet
    {
        type            cyclic;
    }
    outlet
    {
        type            cyclic;
    }
    fixedWalls-bottom
    {
        type            kqRWallFunction;
        value           nonuniform List<symmTensor> 4((7.02684e-07 -0 -0 7.02684e-07 -0 7.02684e-07) (7.02885e-07 -0 -0 7.02885e-07 -0 7.02885e-07) (7.02961e-07 -0 -0 7.02961e-07 -0 7.02961e-07) (7.02689e-07 -0 -0 7.02689e-07 -0 7.02689e-07));
    }
    fixedWalls-top
    {
        type            symmetry;
    }
    frontAndBack
    {
        type            empty;
    }
}


// ************************************************************************* //
