/*--------------------------------*- C++ -*----------------------------------*\
  =========                 |
  \\      /  F ield         | OpenFOAM: The Open Source CFD Toolbox
   \\    /   O peration     | Website:  https://openfoam.org
    \\  /    A nd           | Version:  10
     \\/     M anipulation  |
\*---------------------------------------------------------------------------*/
FoamFile
{
    format      ascii;
    class       volVectorField;
    location    "5000";
    object      U;
}
// * * * * * * * * * * * * * * * * * * * * * * * * * * * * * * * * * * * * * //

dimensions      [0 1 -1 0 0 0 0];

internalField   nonuniform List<vector> 
400
(
(0.00692075 4.04055e-18 0)
(0.00692075 -5.88165e-20 0)
(0.00692075 1.13718e-19 0)
(0.00692075 -1.69396e-20 0)
(0.0207955 3.95933e-17 0)
(0.0207955 1.4213e-19 0)
(0.0207955 2.36345e-19 0)
(0.0207955 -1.34736e-19 0)
(0.0347998 2.81769e-17 0)
(0.0347998 3.33376e-19 0)
(0.0347998 1.08171e-18 0)
(0.0347998 -4.48671e-19 0)
(0.0489336 2.70198e-17 0)
(0.0489336 7.62158e-19 0)
(0.0489336 2.2287e-18 0)
(0.0489336 -9.4205e-19 0)
(0.0631967 2.50308e-17 0)
(0.0631967 1.36938e-18 0)
(0.0631967 3.74553e-18 0)
(0.0631967 -1.4652e-18 0)
(0.077589 2.27122e-17 0)
(0.077589 2.01043e-18 0)
(0.077589 5.74509e-18 0)
(0.077589 -2.10731e-18 0)
(0.0921103 2.00621e-17 0)
(0.0921103 2.52748e-18 0)
(0.0921103 8.27966e-18 0)
(0.0921103 -2.77126e-18 0)
(0.10676 1.68247e-17 0)
(0.10676 2.74959e-18 0)
(0.10676 1.14254e-17 0)
(0.10676 -3.15886e-18 0)
(0.121539 1.29419e-17 0)
(0.121539 2.75826e-18 0)
(0.121539 1.52269e-17 0)
(0.121539 -3.28853e-18 0)
(0.136445 8.23419e-18 0)
(0.136445 2.67763e-18 0)
(0.136445 1.96799e-17 0)
(0.136445 -3.13596e-18 0)
(0.151478 2.67107e-18 0)
(0.151478 2.72293e-18 0)
(0.151478 2.48008e-17 0)
(0.151478 -2.91096e-18 0)
(0.166639 -3.32607e-18 0)
(0.166639 2.53302e-18 0)
(0.166639 3.06931e-17 0)
(0.166639 -2.72937e-18 0)
(0.181926 -9.84951e-18 0)
(0.181926 1.78869e-18 0)
(0.181926 3.73109e-17 0)
(0.181926 -1.95676e-18 0)
(0.197338 -1.70933e-17 0)
(0.197338 9.91575e-19 0)
(0.197338 4.42646e-17 0)
(0.197338 -8.14111e-19 0)
(0.212875 -2.44658e-17 0)
(0.212875 7.0703e-20 0)
(0.212875 5.15675e-17 0)
(0.212875 6.76935e-20 0)
(0.228536 -3.19049e-17 0)
(0.228536 -7.71005e-19 0)
(0.228536 5.88156e-17 0)
(0.228536 1.01286e-18 0)
(0.24432 -3.95343e-17 0)
(0.24432 -2.14534e-18 0)
(0.24432 6.57008e-17 0)
(0.24432 3.07311e-18 0)
(0.260226 -4.66246e-17 0)
(0.260226 -4.08697e-18 0)
(0.260226 7.23653e-17 0)
(0.260226 5.45529e-18 0)
(0.276252 -5.33047e-17 0)
(0.276252 -7.31579e-18 0)
(0.276252 7.95757e-17 0)
(0.276252 8.06374e-18 0)
(0.292398 -6.04018e-17 0)
(0.292398 -1.11833e-17 0)
(0.292398 8.68865e-17 0)
(0.292398 1.16765e-17 0)
(0.308662 -6.76085e-17 0)
(0.308662 -1.53136e-17 0)
(0.308662 9.41041e-17 0)
(0.308662 1.60137e-17 0)
(0.325043 -7.46355e-17 0)
(0.325043 -2.02547e-17 0)
(0.325043 1.01563e-16 0)
(0.325043 2.05725e-17 0)
(0.341539 -8.1224e-17 0)
(0.341539 -2.66331e-17 0)
(0.341539 1.07958e-16 0)
(0.341539 2.70624e-17 0)
(0.358148 -8.78352e-17 0)
(0.358148 -3.30975e-17 0)
(0.358148 1.14073e-16 0)
(0.358148 3.39766e-17 0)
(0.374869 -9.43302e-17 0)
(0.374869 -3.96025e-17 0)
(0.374869 1.19729e-16 0)
(0.374869 4.10719e-17 0)
(0.3917 -1.00302e-16 0)
(0.3917 -4.53616e-17 0)
(0.3917 1.25114e-16 0)
(0.3917 4.66448e-17 0)
(0.408639 -1.04962e-16 0)
(0.408639 -4.9909e-17 0)
(0.408639 1.29915e-16 0)
(0.408639 5.10418e-17 0)
(0.425683 -1.0895e-16 0)
(0.425683 -5.40438e-17 0)
(0.425683 1.34129e-16 0)
(0.425683 5.53965e-17 0)
(0.442831 -1.13067e-16 0)
(0.442831 -5.73676e-17 0)
(0.442831 1.37786e-16 0)
(0.442831 5.94747e-17 0)
(0.460079 -1.17887e-16 0)
(0.460079 -5.96049e-17 0)
(0.460079 1.41501e-16 0)
(0.460079 6.327e-17 0)
(0.477426 -1.22664e-16 0)
(0.477426 -6.2273e-17 0)
(0.477426 1.46181e-16 0)
(0.477426 6.62213e-17 0)
(0.494868 -1.25676e-16 0)
(0.494868 -6.47908e-17 0)
(0.494868 1.49871e-16 0)
(0.494868 6.79239e-17 0)
(0.512403 -1.28482e-16 0)
(0.512403 -6.59041e-17 0)
(0.512403 1.52168e-16 0)
(0.512403 6.95422e-17 0)
(0.530028 -1.30086e-16 0)
(0.530028 -6.45512e-17 0)
(0.530028 1.52292e-16 0)
(0.530028 6.98309e-17 0)
(0.547739 -1.28489e-16 0)
(0.547739 -6.13113e-17 0)
(0.547739 1.51246e-16 0)
(0.547739 6.7197e-17 0)
(0.565533 -1.24746e-16 0)
(0.565533 -5.74098e-17 0)
(0.565533 1.48488e-16 0)
(0.565533 6.35678e-17 0)
(0.583406 -1.20695e-16 0)
(0.583406 -5.21623e-17 0)
(0.583406 1.44126e-16 0)
(0.583406 5.90589e-17 0)
(0.601356 -1.16645e-16 0)
(0.601356 -4.60204e-17 0)
(0.601356 1.39151e-16 0)
(0.601356 5.4749e-17 0)
(0.619377 -1.13603e-16 0)
(0.619377 -4.11513e-17 0)
(0.619377 1.34899e-16 0)
(0.619377 5.09134e-17 0)
(0.637465 -1.09928e-16 0)
(0.637465 -3.73682e-17 0)
(0.637465 1.32535e-16 0)
(0.637465 4.59222e-17 0)
(0.655617 -1.05818e-16 0)
(0.655617 -3.37267e-17 0)
(0.655617 1.2972e-16 0)
(0.655617 4.18094e-17 0)
(0.673828 -1.01263e-16 0)
(0.673828 -3.21558e-17 0)
(0.673828 1.24518e-16 0)
(0.673828 3.99222e-17 0)
(0.692093 -9.5362e-17 0)
(0.692093 -2.98411e-17 0)
(0.692093 1.18555e-16 0)
(0.692093 3.77629e-17 0)
(0.710406 -9.00446e-17 0)
(0.710406 -2.80249e-17 0)
(0.710406 1.11742e-16 0)
(0.710406 3.7739e-17 0)
(0.728764 -8.45413e-17 0)
(0.728764 -2.92609e-17 0)
(0.728764 1.05611e-16 0)
(0.728764 3.94362e-17 0)
(0.74716 -7.85855e-17 0)
(0.74716 -3.33244e-17 0)
(0.74716 1.01132e-16 0)
(0.74716 4.18529e-17 0)
(0.765588 -7.2603e-17 0)
(0.765588 -3.68044e-17 0)
(0.765588 9.59116e-17 0)
(0.765588 4.38173e-17 0)
(0.784043 -6.79194e-17 0)
(0.784043 -4.2625e-17 0)
(0.784043 9.28588e-17 0)
(0.784043 4.83828e-17 0)
(0.802518 -6.36373e-17 0)
(0.802518 -4.62078e-17 0)
(0.802518 8.97997e-17 0)
(0.802518 5.07776e-17 0)
(0.821007 -5.97632e-17 0)
(0.821007 -4.58893e-17 0)
(0.821007 8.66911e-17 0)
(0.821007 4.86524e-17 0)
(0.839503 -5.63802e-17 0)
(0.839503 -4.52275e-17 0)
(0.839503 8.39443e-17 0)
(0.839503 4.64925e-17 0)
(0.857999 -5.5598e-17 0)
(0.857999 -4.45723e-17 0)
(0.857999 8.22384e-17 0)
(0.857999 4.65896e-17 0)
(0.876488 -5.48031e-17 0)
(0.876488 -4.58445e-17 0)
(0.876488 7.85774e-17 0)
(0.876488 5.02998e-17 0)
(0.894961 -5.59237e-17 0)
(0.894961 -4.66729e-17 0)
(0.894961 7.66259e-17 0)
(0.894961 5.24848e-17 0)
(0.913411 -5.83921e-17 0)
(0.913411 -4.55188e-17 0)
(0.913411 7.81214e-17 0)
(0.913411 5.01173e-17 0)
(0.93183 -5.87952e-17 0)
(0.93183 -4.15219e-17 0)
(0.93183 7.95722e-17 0)
(0.93183 4.63158e-17 0)
(0.950208 -6.06596e-17 0)
(0.950208 -3.27766e-17 0)
(0.950208 8.07501e-17 0)
(0.950208 4.02398e-17 0)
(0.968536 -6.01588e-17 0)
(0.968536 -2.28288e-17 0)
(0.968536 8.11817e-17 0)
(0.968536 3.12446e-17 0)
(0.986806 -5.47295e-17 0)
(0.986806 -1.33311e-17 0)
(0.986806 7.67996e-17 0)
(0.986806 1.93987e-17 0)
(1.00501 -4.84697e-17 0)
(1.00501 -1.81606e-18 0)
(1.00501 6.73239e-17 0)
(1.00501 9.63154e-18 0)
(1.02313 -4.31943e-17 0)
(1.02313 1.09348e-17 0)
(1.02313 5.80878e-17 0)
(1.02313 1.90452e-18 0)
(1.04116 -3.4451e-17 0)
(1.04116 2.16068e-17 0)
(1.04116 4.73168e-17 0)
(1.04116 -7.37362e-18 0)
(1.05909 -2.95069e-17 0)
(1.05909 2.82598e-17 0)
(1.05909 4.3065e-17 0)
(1.05909 -1.32843e-17 0)
(1.07691 -2.66959e-17 0)
(1.07691 3.12057e-17 0)
(1.07691 3.95138e-17 0)
(1.07691 -1.39918e-17 0)
(1.09461 -2.44611e-17 0)
(1.09461 2.94543e-17 0)
(1.09461 3.83375e-17 0)
(1.09461 -1.38509e-17 0)
(1.11217 -2.29474e-17 0)
(1.11217 2.5488e-17 0)
(1.11217 3.57321e-17 0)
(1.11217 -1.02285e-17 0)
(1.12957 -2.36359e-17 0)
(1.12957 2.31842e-17 0)
(1.12957 3.24464e-17 0)
(1.12957 -4.51631e-18 0)
(1.14682 -2.26935e-17 0)
(1.14682 2.14975e-17 0)
(1.14682 2.8473e-17 0)
(1.14682 -4.46454e-19 0)
(1.16389 -2.34498e-17 0)
(1.16389 1.96653e-17 0)
(1.16389 2.71512e-17 0)
(1.16389 1.86373e-18 0)
(1.18077 -1.99677e-17 0)
(1.18077 1.46264e-17 0)
(1.18077 2.43193e-17 0)
(1.18077 5.80455e-18 0)
(1.19744 -1.26004e-17 0)
(1.19744 5.08909e-18 0)
(1.19744 1.95773e-17 0)
(1.19744 1.2193e-17 0)
(1.21389 -5.77664e-18 0)
(1.21389 3.50419e-18 0)
(1.21389 1.48058e-17 0)
(1.21389 1.36931e-17 0)
(1.23011 3.742e-18 0)
(1.23011 8.85961e-18 0)
(1.23011 5.92452e-18 0)
(1.23011 9.16839e-18 0)
(1.24606 1.20586e-17 0)
(1.24606 1.60613e-17 0)
(1.24606 -1.35468e-18 0)
(1.24606 -1.35639e-18 0)
(1.26175 2.02836e-17 0)
(1.26175 2.15595e-17 0)
(1.26175 -5.45253e-18 0)
(1.26175 -9.50975e-18 0)
(1.27715 2.42373e-17 0)
(1.27715 2.92478e-17 0)
(1.27715 -1.37107e-18 0)
(1.27715 -2.35923e-17 0)
(1.29224 1.77945e-17 0)
(1.29224 2.54613e-17 0)
(1.29224 1.44663e-18 0)
(1.29224 -2.16452e-17 0)
(1.307 1.72765e-17 0)
(1.307 2.10851e-17 0)
(1.307 -3.41939e-18 0)
(1.307 -1.44916e-17 0)
(1.32141 2.64716e-17 0)
(1.32141 2.60693e-17 0)
(1.32141 -1.18896e-17 0)
(1.32141 -1.64799e-17 0)
(1.33546 4.40161e-17 0)
(1.33546 3.09394e-17 0)
(1.33546 -2.87128e-17 0)
(1.33546 -2.32317e-17 0)
(1.34912 6.93584e-17 0)
(1.34912 3.17759e-17 0)
(1.34912 -5.79948e-17 0)
(1.34912 -2.62207e-17 0)
(1.36236 9.01756e-17 0)
(1.36236 2.53882e-17 0)
(1.36236 -8.23112e-17 0)
(1.36236 -1.5655e-17 0)
(1.37517 1.16436e-16 0)
(1.37517 1.46898e-17 0)
(1.37517 -1.02541e-16 0)
(1.37517 -9.07966e-18 0)
(1.38752 1.38119e-16 0)
(1.38752 1.73864e-18 0)
(1.38752 -1.22191e-16 0)
(1.38752 -2.77435e-18 0)
(1.39939 1.48631e-16 0)
(1.39939 -1.10477e-17 0)
(1.39939 -1.38035e-16 0)
(1.39939 1.19825e-17 0)
(1.41075 1.50947e-16 0)
(1.41075 -1.59723e-17 0)
(1.41075 -1.48315e-16 0)
(1.41075 2.42708e-17 0)
(1.42158 1.59922e-16 0)
(1.42158 -1.89434e-17 0)
(1.42158 -1.58872e-16 0)
(1.42158 2.8403e-17 0)
(1.43184 1.68738e-16 0)
(1.43184 -1.78346e-17 0)
(1.43184 -1.71514e-16 0)
(1.43184 2.79141e-17 0)
(1.44152 1.70293e-16 0)
(1.44152 -1.1555e-17 0)
(1.44152 -1.74724e-16 0)
(1.44152 1.82364e-17 0)
(1.45057 1.7029e-16 0)
(1.45057 4.70975e-18 0)
(1.45057 -1.66856e-16 0)
(1.45057 -5.90737e-18 0)
(1.45897 1.6677e-16 0)
(1.45897 2.2735e-17 0)
(1.45897 -1.56886e-16 0)
(1.45897 -2.90662e-17 0)
(1.4667 1.63204e-16 0)
(1.4667 2.73539e-17 0)
(1.4667 -1.47438e-16 0)
(1.4667 -4.07529e-17 0)
(1.47371 1.5861e-16 0)
(1.47371 3.45427e-17 0)
(1.47371 -1.42294e-16 0)
(1.47371 -4.85075e-17 0)
(1.47997 1.47033e-16 0)
(1.47997 3.27925e-17 0)
(1.47997 -1.32799e-16 0)
(1.47997 -4.4127e-17 0)
(1.48545 1.31302e-16 0)
(1.48545 1.62281e-17 0)
(1.48545 -1.15582e-16 0)
(1.48545 -2.88212e-17 0)
(1.49011 1.10718e-16 0)
(1.49011 2.60757e-18 0)
(1.49011 -9.89124e-17 0)
(1.49011 -1.18457e-17 0)
(1.49392 7.77032e-17 0)
(1.49392 -2.99773e-18 0)
(1.49392 -7.38793e-17 0)
(1.49392 1.98482e-18 0)
(1.49684 4.57134e-17 0)
(1.49684 -2.6193e-18 0)
(1.49684 -4.73268e-17 0)
(1.49684 4.67628e-18 0)
(1.49883 3.0611e-17 0)
(1.49883 4.24656e-19 0)
(1.49883 -2.93719e-17 0)
(1.49883 3.52722e-18 0)
(1.49984 3.96883e-18 0)
(1.49984 2.84095e-18 0)
(1.49984 -5.08823e-18 0)
(1.49984 -1.01211e-18 0)
)
;

boundaryField
{
    inlet
    {
        type            cyclic;
    }
    outlet
    {
        type            cyclic;
    }
    fixedWalls-bottom
    {
        type            noSlip;
    }
    fixedWalls-top
    {
        type            symmetry;
    }
    frontAndBack
    {
        type            empty;
    }
}


// ************************************************************************* //
