/*--------------------------------*- C++ -*----------------------------------*\
  =========                 |
  \\      /  F ield         | OpenFOAM: The Open Source CFD Toolbox
   \\    /   O peration     | Website:  https://openfoam.org
    \\  /    A nd           | Version:  10
     \\/     M anipulation  |
\*---------------------------------------------------------------------------*/
FoamFile
{
    format      ascii;
    class       volScalarField;
    location    "2500";
    object      p;
}
// * * * * * * * * * * * * * * * * * * * * * * * * * * * * * * * * * * * * * //

dimensions      [0 2 -2 0 0 0 0];

internalField   nonuniform List<scalar> 
400
(
8.0462e-12
2.71691e-08
2.74384e-08
3.87471e-10
4.09699e-11
2.71125e-08
2.74289e-08
4.44145e-10
5.65714e-11
2.70472e-08
2.74186e-08
5.09492e-10
6.41413e-11
2.69859e-08
2.74094e-08
5.70725e-10
7.22908e-11
2.69283e-08
2.74012e-08
6.28349e-10
7.98154e-11
2.68736e-08
2.73938e-08
6.83044e-10
8.77557e-11
2.6822e-08
2.73868e-08
7.34662e-10
9.45571e-11
2.67744e-08
2.73801e-08
7.82343e-10
1.0186e-10
2.6731e-08
2.73736e-08
8.25723e-10
1.08493e-10
2.66927e-08
2.73671e-08
8.64028e-10
1.16075e-10
2.66598e-08
2.73602e-08
8.9701e-10
1.2356e-10
2.66329e-08
2.73528e-08
9.23911e-10
1.32538e-10
2.66122e-08
2.73444e-08
9.44591e-10
1.42057e-10
2.65985e-08
2.7335e-08
9.58365e-10
1.53667e-10
2.65916e-08
2.73239e-08
9.65269e-10
1.66463e-10
2.65921e-08
2.73112e-08
9.64798e-10
1.81933e-10
2.65996e-08
2.72963e-08
9.57373e-10
1.99158e-10
2.66139e-08
2.72791e-08
9.43029e-10
2.19473e-10
2.66338e-08
2.72594e-08
9.23165e-10
2.41758e-10
2.66576e-08
2.72372e-08
8.99424e-10
2.66953e-10
2.6681e-08
2.72125e-08
8.761e-10
2.93331e-10
2.66974e-08
2.71862e-08
8.59721e-10
3.20763e-10
2.66948e-08
2.71593e-08
8.62287e-10
3.45421e-10
2.66551e-08
2.71348e-08
9.02088e-10
3.62166e-10
2.6541e-08
2.71185e-08
1.01623e-09
3.56408e-10
2.62609e-08
2.71244e-08
1.29638e-09
3.0937e-10
2.56323e-08
2.71719e-08
1.92496e-09
2.23794e-10
2.45763e-08
2.72576e-08
2.98099e-09
2.03098e-10
2.38131e-08
2.72788e-08
3.74429e-09
2.74515e-10
2.36454e-08
2.72075e-08
3.912e-09
3.6171e-10
2.35635e-08
2.71207e-08
3.99399e-09
4.46898e-10
2.34585e-08
2.70357e-08
4.09903e-09
5.3393e-10
2.33549e-08
2.69491e-08
4.20268e-09
6.23296e-10
2.32725e-08
2.68599e-08
4.28506e-09
7.16266e-10
2.32156e-08
2.67673e-08
4.342e-09
8.1163e-10
2.31851e-08
2.66721e-08
4.37261e-09
9.11703e-10
2.31767e-08
2.65724e-08
4.38107e-09
1.01622e-09
2.31829e-08
2.6468e-08
4.37493e-09
1.12713e-09
2.31969e-08
2.63575e-08
4.3609e-09
1.24298e-09
2.32153e-08
2.62418e-08
4.34261e-09
1.36516e-09
2.32352e-08
2.612e-08
4.32275e-09
1.49196e-09
2.32552e-08
2.59933e-08
4.30282e-09
1.62461e-09
2.32734e-08
2.5861e-08
4.28466e-09
1.76108e-09
2.32886e-08
2.57247e-08
4.26945e-09
1.90233e-09
2.3299e-08
2.55838e-08
4.25908e-09
2.04595e-09
2.33033e-08
2.54403e-08
4.25489e-09
2.19258e-09
2.3299e-08
2.5294e-08
4.25926e-09
2.3394e-09
2.32844e-08
2.51473e-08
4.2739e-09
2.48667e-09
2.32566e-08
2.50004e-08
4.30177e-09
2.63109e-09
2.32133e-08
2.48561e-08
4.34508e-09
2.77247e-09
2.31508e-08
2.4715e-08
4.40759e-09
2.90696e-09
2.30665e-08
2.45807e-08
4.49201e-09
3.03384e-09
2.29556e-08
2.44541e-08
4.60288e-09
3.1488e-09
2.28154e-08
2.43393e-08
4.74313e-09
3.25091e-09
2.2641e-08
2.42374e-08
4.91765e-09
3.33591e-09
2.24298e-08
2.41526e-08
5.12889e-09
3.40295e-09
2.21773e-08
2.40859e-08
5.38146e-09
3.44799e-09
2.18821e-08
2.4041e-08
5.67665e-09
3.47047e-09
2.15409e-08
2.40188e-08
6.01793e-09
3.46699e-09
2.11543e-08
2.40224e-08
6.40452e-09
3.43764e-09
2.0721e-08
2.40521e-08
6.83789e-09
3.38024e-09
2.02436e-08
2.41097e-08
7.31541e-09
3.29647e-09
1.97213e-08
2.41937e-08
7.83775e-09
3.18669e-09
1.91573e-08
2.43037e-08
8.40176e-09
3.05604e-09
1.85517e-08
2.44346e-08
9.00744e-09
2.91016e-09
1.7908e-08
2.45807e-08
9.65114e-09
2.76026e-09
1.72274e-08
2.47308e-08
1.03318e-08
2.61106e-09
1.65148e-08
2.48802e-08
1.10444e-08
2.46461e-09
1.57724e-08
2.50269e-08
1.17868e-08
2.31562e-09
1.50035e-08
2.5176e-08
1.25558e-08
2.15704e-09
1.42079e-08
2.53348e-08
1.33514e-08
1.98151e-09
1.33871e-08
2.55104e-08
1.41723e-08
1.78732e-09
1.2543e-08
2.57048e-08
1.50164e-08
1.57341e-09
1.16846e-08
2.59188e-08
1.58747e-08
1.34463e-09
1.0822e-08
2.61478e-08
1.67373e-08
1.10702e-09
9.96787e-09
2.63855e-08
1.75915e-08
8.72706e-10
9.13038e-09
2.66199e-08
1.84289e-08
6.59571e-10
8.31585e-09
2.68331e-08
1.92435e-08
5.10164e-10
7.51394e-09
2.69827e-08
2.00453e-08
4.7658e-10
6.70257e-09
2.70163e-08
2.08567e-08
5.61818e-10
5.86468e-09
2.69312e-08
2.16946e-08
7.27011e-10
4.98514e-09
2.67661e-08
2.25741e-08
9.54319e-10
4.07261e-09
2.65389e-08
2.34866e-08
1.25751e-09
3.38629e-09
2.62358e-08
2.41729e-08
1.65549e-09
3.27868e-09
2.58379e-08
2.42805e-08
2.00822e-09
1.82522e-09
2.54853e-08
2.57339e-08
1.77465e-09
-9.84042e-09
2.5719e-08
3.73995e-08
1.33677e-09
-2.68902e-08
2.6157e-08
5.44493e-08
1.29584e-09
-3.71185e-08
2.61982e-08
6.46776e-08
1.4912e-09
-4.18581e-08
2.6003e-08
6.94171e-08
1.86051e-09
-4.42818e-08
2.56338e-08
7.18408e-08
2.29454e-09
-4.569e-08
2.51998e-08
7.3249e-08
2.71554e-09
-4.64897e-08
2.47789e-08
7.40487e-08
3.08024e-09
-4.6891e-08
2.44143e-08
7.445e-08
3.37072e-09
-4.7053e-08
2.41239e-08
7.46119e-08
3.58659e-09
-4.7083e-08
2.3908e-08
7.4642e-08
3.73812e-09
-4.70503e-08
2.37566e-08
7.46092e-08
3.83765e-09
-4.69978e-08
2.36571e-08
7.45567e-08
3.89513e-09
-4.69543e-08
2.35996e-08
7.45132e-08
3.91832e-09
-4.69381e-08
2.35764e-08
7.4497e-08
)
;

boundaryField
{
    inlet
    {
        type            cyclic;
    }
    outlet
    {
        type            cyclic;
    }
    fixedWalls-bottom
    {
        type            zeroGradient;
    }
    fixedWalls-top
    {
        type            symmetry;
    }
    frontAndBack
    {
        type            empty;
    }
}


// ************************************************************************* //
