/*--------------------------------*- C++ -*----------------------------------*\
  =========                 |
  \\      /  F ield         | OpenFOAM: The Open Source CFD Toolbox
   \\    /   O peration     | Website:  https://openfoam.org
    \\  /    A nd           | Version:  10
     \\/     M anipulation  |
\*---------------------------------------------------------------------------*/
FoamFile
{
    format      ascii;
    class       surfaceScalarField;
    location    "2500";
    object      phi;
}
// * * * * * * * * * * * * * * * * * * * * * * * * * * * * * * * * * * * * * //

dimensions      [0 3 -1 0 0 0 0];

internalField   nonuniform List<scalar> 
696
(
6.42157e-05
-3.60058e-12
6.42157e-05
-8.22858e-12
6.42157e-05
-1.54824e-12
8.23056e-12
0.00019568
7.88448e-13
0.00019568
-3.28908e-11
0.00019568
-5.89431e-12
3.28977e-11
0.000332076
7.83724e-12
0.000332076
-7.41482e-11
0.000332076
-1.28841e-11
7.41611e-11
0.000473535
1.73701e-11
0.000473535
-1.32002e-10
0.000473535
-2.23839e-11
1.32019e-10
0.000620186
2.92704e-11
0.000620186
-2.06282e-10
0.000620186
-3.42317e-11
2.06306e-10
0.000772163
4.33827e-11
0.000772163
-2.96642e-10
0.000772163
-4.83191e-11
2.9667e-10
0.000929603
5.96242e-11
0.000929603
-4.0254e-10
0.000929603
-6.45106e-11
4.02575e-10
0.00109264
7.78903e-11
0.00109264
-5.23256e-10
0.00109264
-8.27569e-11
5.23295e-10
0.00126142
9.81609e-11
0.00126142
-6.5785e-10
0.00126142
-1.02978e-10
6.57895e-10
0.00143608
1.20411e-10
0.00143609
-8.05204e-10
0.00143609
-1.25211e-10
8.05253e-10
0.00161678
1.44711e-10
0.00161678
-9.63962e-10
0.00161678
-1.49459e-10
9.64018e-10
0.00180364
1.71152e-10
0.00180364
-1.13261e-09
0.00180364
-1.75883e-10
1.13267e-09
0.00199683
1.99919e-10
0.00199683
-1.30937e-09
0.00199683
-2.04597e-10
1.30944e-09
0.00219649
2.31249e-10
0.00219649
-1.49235e-09
0.00219649
-2.3591e-10
1.49242e-09
0.00240278
2.65465e-10
0.00240278
-1.67936e-09
0.00240278
-2.70071e-10
1.67943e-09
0.00261586
3.02978e-10
0.00261586
-1.86817e-09
0.00261586
-3.07565e-10
1.86824e-09
0.00283587
3.44265e-10
0.00283587
-2.05629e-09
0.00283587
-3.48796e-10
2.05638e-09
0.00306299
3.8992e-10
0.00306299
-2.24131e-09
0.00306299
-3.94428e-10
2.2414e-09
0.00329737
4.40567e-10
0.00329737
-2.42071e-09
0.00329737
-4.45018e-10
2.42081e-09
0.00353917
4.96949e-10
0.00353917
-2.5924e-09
0.00353917
-5.01375e-10
2.59249e-09
0.00378855
5.59751e-10
0.00378856
-2.75467e-09
0.00378856
-5.64118e-10
2.75478e-09
0.0040457
6.29687e-10
0.0040457
-2.90727e-09
0.0040457
-6.34027e-10
2.90737e-09
0.00431076
7.07155e-10
0.00431076
-3.05198e-09
0.00431076
-7.11435e-10
3.05209e-09
0.0045839
7.92135e-10
0.0045839
-3.19516e-09
0.0045839
-7.96386e-10
3.19527e-09
0.00486531
8.83382e-10
0.00486531
-3.35037e-09
0.00486531
-8.87571e-10
3.35049e-09
0.00515513
9.77902e-10
0.00515513
-3.54461e-09
0.00515513
-9.8206e-10
3.54473e-09
0.00545354
1.06998e-09
0.00545354
-3.82707e-09
0.00545354
-1.07408e-09
3.82719e-09
0.00576071
1.15124e-09
0.00576071
-4.28509e-09
0.00576071
-1.15531e-09
4.28522e-09
0.00607679
1.23252e-09
0.00607679
-4.86696e-09
0.00607679
-1.23652e-09
4.86709e-09
0.00640197
1.33025e-09
0.00640197
-5.45917e-09
0.00640197
-1.33422e-09
5.4593e-09
0.00673644
1.44445e-09
0.00673644
-6.05695e-09
0.00673644
-1.44835e-09
6.05709e-09
0.00708037
1.57468e-09
0.00708037
-6.65533e-09
0.00708037
-1.57854e-09
6.65546e-09
0.00743394
1.72015e-09
0.00743394
-7.24807e-09
0.00743394
-1.72396e-09
7.24822e-09
0.00779733
1.87961e-09
0.00779733
-7.82888e-09
0.00779733
-1.88337e-09
7.82902e-09
0.0081707
2.05166e-09
0.0081707
-8.39026e-09
0.0081707
-2.05536e-09
8.39041e-09
0.00855423
2.23452e-09
0.00855423
-8.9247e-09
0.00855423
-2.23818e-09
8.92485e-09
0.0089481
2.42674e-09
0.0089481
-9.42469e-09
0.0089481
-2.43034e-09
9.42485e-09
0.00935248
2.6265e-09
0.00935248
-9.88471e-09
0.00935248
-2.63005e-09
9.88486e-09
0.00976754
2.8325e-09
0.00976754
-1.02999e-08
0.00976754
-2.83599e-09
1.03001e-08
0.0101934
3.04272e-09
0.0101934
-1.06667e-08
0.0101934
-3.04617e-09
1.06669e-08
0.0106304
3.25588e-09
0.0106304
-1.09817e-08
0.0106304
-3.25927e-09
1.09819e-08
0.0110785
3.46978e-09
0.0110785
-1.12422e-08
0.0110785
-3.47312e-09
1.12424e-08
0.0115379
3.68315e-09
0.0115379
-1.14458e-08
0.0115379
-3.68643e-09
1.1446e-08
0.0120088
3.89359e-09
0.0120088
-1.15904e-08
0.0120088
-3.89682e-09
1.15906e-08
0.0124914
4.09996e-09
0.0124914
-1.16744e-08
0.0124914
-4.10314e-09
1.16746e-08
0.0129857
4.29976e-09
0.0129857
-1.16964e-08
0.0129857
-4.30288e-09
1.16966e-08
0.0134921
4.49201e-09
0.0134921
-1.16562e-08
0.0134921
-4.49508e-09
1.16564e-08
0.0140104
4.67417e-09
0.0140104
-1.15529e-08
0.0140104
-4.67718e-09
1.15531e-08
0.014541
4.8455e-09
0.014541
-1.1388e-08
0.014541
-4.84846e-09
1.13882e-08
0.015084
5.00344e-09
0.015084
-1.11619e-08
0.015084
-5.00635e-09
1.11621e-08
0.0156394
5.14751e-09
0.0156394
-1.0878e-08
0.0156394
-5.15037e-09
1.08782e-08
0.0162073
5.27515e-09
0.0162073
-1.05381e-08
0.0162073
-5.27795e-09
1.05383e-08
0.0167879
5.38603e-09
0.0167879
-1.01481e-08
0.0167879
-5.38878e-09
1.01483e-08
0.0173813
5.47749e-09
0.0173813
-9.71172e-09
0.0173813
-5.48018e-09
9.71192e-09
0.0179875
5.5492e-09
0.0179875
-9.23762e-09
0.0179875
-5.55184e-09
9.23783e-09
0.0186067
5.59845e-09
0.0186067
-8.73122e-09
0.0186067
-5.60104e-09
8.73142e-09
0.0192388
5.62478e-09
0.0192388
-8.20386e-09
0.0192388
-5.62732e-09
8.20407e-09
0.0198839
5.6253e-09
0.0198839
-7.66243e-09
0.0198839
-5.62778e-09
7.66264e-09
0.020542
5.59916e-09
0.020542
-7.11989e-09
0.020542
-5.6016e-09
7.1201e-09
0.0212133
5.54311e-09
0.0212133
-6.5839e-09
0.0212133
-5.54549e-09
6.58411e-09
0.0218976
5.45559e-09
0.0218976
-6.06759e-09
0.0218976
-5.45793e-09
6.0678e-09
0.0225949
5.33268e-09
0.0225949
-5.57819e-09
0.0225949
-5.33496e-09
5.5784e-09
0.0233053
5.17204e-09
0.0233053
-5.12743e-09
0.0233053
-5.17427e-09
5.12764e-09
0.0240286
4.96919e-09
0.0240286
-4.72157e-09
0.0240286
-4.97137e-09
4.72178e-09
0.0247648
4.72146e-09
0.0247648
-4.36951e-09
0.0247648
-4.7236e-09
4.36973e-09
0.0255138
4.42396e-09
0.0255138
-4.07528e-09
0.0255138
-4.42606e-09
4.07549e-09
0.0262754
4.07802e-09
0.0262754
-3.84371e-09
0.0262754
-4.08006e-09
3.84392e-09
0.0270496
3.68302e-09
0.0270496
-3.67623e-09
0.0270496
-3.68501e-09
3.67644e-09
0.0278361
3.23638e-09
0.0278361
-3.5714e-09
0.0278361
-3.23834e-09
3.57162e-09
0.0286346
2.73095e-09
0.0286346
-3.5262e-09
0.0286346
-2.73286e-09
3.52641e-09
0.0294451
2.15785e-09
0.0294451
-3.53397e-09
0.0294451
-2.15971e-09
3.53419e-09
0.0302672
1.50111e-09
0.0302672
-3.58776e-09
0.0302672
-1.50293e-09
3.58798e-09
0.0311005
7.43441e-10
0.0311005
-3.67361e-09
0.0311005
-7.45208e-10
3.67383e-09
0.0319449
-1.39032e-10
0.0319449
-3.7736e-09
0.0319449
1.37313e-10
3.77381e-09
0.0327997
-1.16802e-09
0.0327997
-3.85561e-09
0.0327997
1.16635e-09
3.85584e-09
0.0336647
-2.36851e-09
0.0336647
-3.88032e-09
0.0336647
2.36689e-09
3.88054e-09
0.0345394
-3.76106e-09
0.0345394
-3.79063e-09
0.0345394
3.75949e-09
3.79085e-09
0.0354232
-5.36206e-09
0.0354232
-3.51921e-09
0.0354232
5.36055e-09
3.51943e-09
0.0363155
-7.16695e-09
0.0363155
-2.98326e-09
0.0363155
7.16549e-09
2.98349e-09
0.0372157
-9.1443e-09
0.0372157
-2.09518e-09
0.0372157
9.14289e-09
2.0954e-09
0.0381232
-1.1247e-08
0.0381232
-7.43619e-10
0.0381232
1.12457e-08
7.43851e-10
0.0390372
-1.34266e-08
0.0390372
1.20451e-09
0.0390372
1.34253e-08
-1.20428e-09
0.0399568
-1.56027e-08
0.0399568
3.89137e-09
0.0399568
1.56014e-08
-3.89113e-09
0.0408812
-1.7659e-08
0.0408812
7.47481e-09
0.0408812
1.76578e-08
-7.47458e-09
0.0418094
-1.94158e-08
0.0418094
1.21225e-08
0.0418094
1.94147e-08
-1.21223e-08
0.0427404
-2.06177e-08
0.0427404
1.80101e-08
0.0427404
2.06167e-08
-1.80099e-08
0.0436732
-2.12359e-08
0.0436732
2.10132e-08
0.0436732
2.12349e-08
-2.1013e-08
0.0446068
-2.11836e-08
0.0446068
1.88839e-08
0.0446068
2.11827e-08
-1.88836e-08
0.0455398
-2.03362e-08
0.0455398
1.4671e-08
0.0455398
2.03354e-08
-1.46708e-08
0.0464705
-1.88356e-08
0.0464705
1.00851e-08
0.0464705
1.88349e-08
-1.00848e-08
0.0473976
-1.68471e-08
0.0473976
5.89136e-09
0.0473976
1.68464e-08
-5.89113e-09
0.0483193
-1.45661e-08
0.0483193
2.45021e-09
0.0483193
1.45655e-08
-2.45e-09
0.0492339
-1.21782e-08
0.0492339
-1.15028e-10
0.0492339
1.21776e-08
1.15227e-10
0.0501395
-9.83831e-09
0.0501395
-1.81415e-09
0.0501395
9.83787e-09
1.81434e-09
0.0510341
-7.66001e-09
0.0510341
-2.7311e-09
0.0510342
7.65965e-09
2.73126e-09
0.0519157
-5.70986e-09
0.0519157
-2.98396e-09
0.0519157
5.70958e-09
2.9841e-09
0.0527819
-4.00755e-09
0.0527819
-2.70501e-09
0.0527819
4.00735e-09
2.70513e-09
0.0536303
-2.53094e-09
0.0536303
-2.02731e-09
0.0536303
2.53082e-09
2.0274e-09
0.0544584
-1.22261e-09
0.0544584
-1.07899e-09
0.0544584
1.22257e-09
1.07903e-09
0.0552635
0.0552635
0.0552635
)
;

boundaryField
{
    inlet
    {
        type            cyclic;
        value           nonuniform List<scalar> 
100
(
-0.0552635
-0.0544584
-0.0536303
-0.0527819
-0.0519157
-0.0510342
-0.0501395
-0.0492339
-0.0483193
-0.0473976
-0.0464705
-0.0455398
-0.0446068
-0.0436732
-0.0427404
-0.0418094
-0.0408812
-0.0399568
-0.0390372
-0.0381232
-0.0372157
-0.0363155
-0.0354232
-0.0345394
-0.0336647
-0.0327997
-0.0319449
-0.0311005
-0.0302672
-0.0294451
-0.0286346
-0.0278361
-0.0270496
-0.0262754
-0.0255138
-0.0247648
-0.0240286
-0.0233053
-0.0225949
-0.0218976
-0.0212133
-0.020542
-0.0198839
-0.0192388
-0.0186067
-0.0179875
-0.0173813
-0.0167879
-0.0162073
-0.0156394
-0.015084
-0.014541
-0.0140104
-0.0134921
-0.0129857
-0.0124914
-0.0120088
-0.0115379
-0.0110785
-0.0106304
-0.0101934
-0.00976754
-0.00935248
-0.0089481
-0.00855423
-0.0081707
-0.00779733
-0.00743394
-0.00708037
-0.00673644
-0.00640197
-0.00607679
-0.00576071
-0.00545354
-0.00515513
-0.00486531
-0.0045839
-0.00431076
-0.0040457
-0.00378855
-0.00353917
-0.00329737
-0.00306299
-0.00283587
-0.00261586
-0.00240278
-0.00219649
-0.00199683
-0.00180364
-0.00161678
-0.00143608
-0.00126142
-0.00109264
-0.000929603
-0.000772163
-0.000620186
-0.000473535
-0.000332076
-0.00019568
-6.42157e-05
)
;
    }
    outlet
    {
        type            cyclic;
        value           nonuniform List<scalar> 
100
(
0.0552635
0.0544584
0.0536303
0.0527819
0.0519157
0.0510342
0.0501395
0.0492339
0.0483193
0.0473976
0.0464705
0.0455398
0.0446068
0.0436732
0.0427404
0.0418094
0.0408812
0.0399568
0.0390372
0.0381232
0.0372157
0.0363155
0.0354232
0.0345394
0.0336647
0.0327997
0.0319449
0.0311005
0.0302672
0.0294451
0.0286346
0.0278361
0.0270496
0.0262754
0.0255138
0.0247648
0.0240286
0.0233053
0.0225949
0.0218976
0.0212133
0.020542
0.0198839
0.0192388
0.0186067
0.0179875
0.0173813
0.0167879
0.0162073
0.0156394
0.015084
0.014541
0.0140104
0.0134921
0.0129857
0.0124914
0.0120088
0.0115379
0.0110785
0.0106304
0.0101934
0.00976754
0.00935248
0.0089481
0.00855423
0.0081707
0.00779733
0.00743394
0.00708037
0.00673644
0.00640197
0.00607679
0.00576071
0.00545354
0.00515513
0.00486531
0.0045839
0.00431076
0.0040457
0.00378855
0.00353917
0.00329737
0.00306299
0.00283587
0.00261586
0.00240278
0.00219649
0.00199683
0.00180364
0.00161678
0.00143608
0.00126142
0.00109264
0.000929603
0.000772163
0.000620186
0.000473535
0.000332076
0.00019568
6.42157e-05
)
;
    }
    fixedWalls-bottom
    {
        type            calculated;
        value           uniform 0;
    }
    fixedWalls-top
    {
        type            symmetry;
        value           uniform 0;
    }
    frontAndBack
    {
        type            empty;
        value           nonuniform List<scalar> 0();
    }
}


// ************************************************************************* //
