/*--------------------------------*- C++ -*----------------------------------*\
  =========                 |
  \\      /  F ield         | OpenFOAM: The Open Source CFD Toolbox
   \\    /   O peration     | Website:  https://openfoam.org
    \\  /    A nd           | Version:  10
     \\/     M anipulation  |
\*---------------------------------------------------------------------------*/
FoamFile
{
    format      ascii;
    class       volSymmTensorField;
    location    "2500";
    object      R;
}
// * * * * * * * * * * * * * * * * * * * * * * * * * * * * * * * * * * * * * //

dimensions      [0 2 -2 0 0 0 0];

internalField   nonuniform List<symmTensor> 
400
(
(4.04993e-11 -6.81004e-16 -0 4.04993e-11 -0 4.04993e-11)
(4.04645e-11 -6.8042e-16 -0 4.04645e-11 -0 4.04645e-11)
(4.04436e-11 -6.80068e-16 -0 4.04436e-11 -0 4.04436e-11)
(4.04687e-11 -6.80489e-16 -0 4.04687e-11 -0 4.04687e-11)
(1.21486e-09 -1.18862e-13 -0 1.21486e-09 -0 1.21486e-09)
(1.21381e-09 -1.1876e-13 -0 1.21381e-09 -0 1.21381e-09)
(1.21319e-09 -1.18699e-13 -0 1.21319e-09 -0 1.21319e-09)
(1.21394e-09 -1.18772e-13 -0 1.21394e-09 -0 1.21394e-09)
(8.6027e-09 -2.4903e-12 -0 8.6027e-09 -0 8.6027e-09)
(8.59531e-09 -2.48816e-12 -0 8.59531e-09 -0 8.59531e-09)
(8.59087e-09 -2.48687e-12 -0 8.59087e-09 -0 8.59087e-09)
(8.5962e-09 -2.48841e-12 -0 8.5962e-09 -0 8.5962e-09)
(3.1273e-08 -1.91802e-11 -0 3.1273e-08 -0 3.1273e-08)
(3.12461e-08 -1.91637e-11 -0 3.12461e-08 -0 3.12461e-08)
(3.123e-08 -1.91538e-11 -0 3.123e-08 -0 3.123e-08)
(3.12493e-08 -1.91657e-11 -0 3.12493e-08 -0 3.12493e-08)
(8.09091e-08 -8.7309e-11 -0 8.09091e-08 -0 8.09091e-08)
(8.08396e-08 -8.72339e-11 -0 8.08396e-08 -0 8.08396e-08)
(8.07978e-08 -8.71889e-11 -0 8.07978e-08 -0 8.07978e-08)
(8.08479e-08 -8.72431e-11 -0 8.08479e-08 -0 8.08479e-08)
(1.71326e-07 -2.89997e-10 -0 1.71326e-07 -0 1.71326e-07)
(1.71179e-07 -2.89748e-10 -0 1.71179e-07 -0 1.71179e-07)
(1.71091e-07 -2.89598e-10 -0 1.71091e-07 -0 1.71091e-07)
(1.71197e-07 -2.89779e-10 -0 1.71197e-07 -0 1.71197e-07)
(3.18356e-07 -7.82686e-10 -0 3.18356e-07 -0 3.18356e-07)
(3.18083e-07 -7.8201e-10 -0 3.18083e-07 -0 3.18083e-07)
(3.17918e-07 -7.81607e-10 -0 3.17918e-07 -0 3.17918e-07)
(3.18115e-07 -7.82096e-10 -0 3.18115e-07 -0 3.18115e-07)
(5.39849e-07 -1.82519e-09 -0 5.39849e-07 -0 5.39849e-07)
(5.39386e-07 -1.82361e-09 -0 5.39386e-07 -0 5.39386e-07)
(5.39107e-07 -1.82267e-09 -0 5.39107e-07 -0 5.39107e-07)
(5.3944e-07 -1.82382e-09 -0 5.3944e-07 -0 5.3944e-07)
(8.55719e-07 -3.82069e-09 -0 8.55719e-07 -0 8.55719e-07)
(8.54985e-07 -3.81736e-09 -0 8.54985e-07 -0 8.54985e-07)
(8.54543e-07 -3.8154e-09 -0 8.54543e-07 -0 8.54543e-07)
(8.55069e-07 -3.81783e-09 -0 8.55069e-07 -0 8.55069e-07)
(1.28799e-06 -7.36503e-09 -0 1.28799e-06 -0 1.28799e-06)
(1.28689e-06 -7.35859e-09 -0 1.28689e-06 -0 1.28689e-06)
(1.28622e-06 -7.35482e-09 -0 1.28622e-06 -0 1.28622e-06)
(1.28701e-06 -7.35955e-09 -0 1.28701e-06 -0 1.28701e-06)
(1.8608e-06 -1.33139e-08 -0 1.8608e-06 -0 1.8608e-06)
(1.85921e-06 -1.33022e-08 -0 1.85921e-06 -0 1.85921e-06)
(1.85825e-06 -1.32954e-08 -0 1.85825e-06 -0 1.85825e-06)
(1.85938e-06 -1.33041e-08 -0 1.85938e-06 -0 1.85938e-06)
(2.60027e-06 -2.28824e-08 -0 2.60027e-06 -0 2.60027e-06)
(2.59805e-06 -2.2862e-08 -0 2.59805e-06 -0 2.59805e-06)
(2.5967e-06 -2.28503e-08 -0 2.5967e-06 -0 2.5967e-06)
(2.59828e-06 -2.28654e-08 -0 2.59828e-06 -0 2.59828e-06)
(3.53418e-06 -3.77987e-08 -0 3.53418e-06 -0 3.53418e-06)
(3.53117e-06 -3.77641e-08 -0 3.53117e-06 -0 3.53117e-06)
(3.52934e-06 -3.77449e-08 -0 3.52934e-06 -0 3.52934e-06)
(3.53147e-06 -3.77704e-08 -0 3.53147e-06 -0 3.53147e-06)
(4.69138e-06 -6.05461e-08 -0 4.69138e-06 -0 4.69138e-06)
(4.6874e-06 -6.04883e-08 -0 4.6874e-06 -0 4.6874e-06)
(4.68497e-06 -6.04579e-08 -0 4.68497e-06 -0 4.68497e-06)
(4.68777e-06 -6.04993e-08 -0 4.68777e-06 -0 4.68777e-06)
(6.10082e-06 -9.47382e-08 -0 6.10082e-06 -0 6.10082e-06)
(6.09566e-06 -9.46427e-08 -0 6.09566e-06 -0 6.09566e-06)
(6.0925e-06 -9.45953e-08 -0 6.0925e-06 -0 6.0925e-06)
(6.09612e-06 -9.46612e-08 -0 6.09612e-06 -0 6.09612e-06)
(7.79024e-06 -1.45698e-07 -0 7.79024e-06 -0 7.79024e-06)
(7.78372e-06 -1.4554e-07 -0 7.78372e-06 -0 7.78372e-06)
(7.77968e-06 -1.45467e-07 -0 7.77968e-06 -0 7.77968e-06)
(7.78425e-06 -1.4557e-07 -0 7.78425e-06 -0 7.78425e-06)
(9.78467e-06 -2.21344e-07 -0 9.78467e-06 -0 9.78467e-06)
(9.77658e-06 -2.2108e-07 -0 9.77658e-06 -0 9.77658e-06)
(9.7715e-06 -2.2097e-07 -0 9.7715e-06 -0 9.7715e-06)
(9.77718e-06 -2.2113e-07 -0 9.77718e-06 -0 9.77718e-06)
(1.21047e-05 -3.33548e-07 -0 1.21047e-05 -0 1.21047e-05)
(1.20949e-05 -3.33105e-07 -0 1.20949e-05 -0 1.20949e-05)
(1.20886e-05 -3.3294e-07 -0 1.20886e-05 -0 1.20886e-05)
(1.20955e-05 -3.33185e-07 -0 1.20955e-05 -0 1.20955e-05)
(1.47648e-05 -5.00235e-07 -0 1.47648e-05 -0 1.47648e-05)
(1.47531e-05 -4.99483e-07 -0 1.47531e-05 -0 1.47531e-05)
(1.47455e-05 -4.99235e-07 -0 1.47455e-05 -0 1.47455e-05)
(1.47538e-05 -4.99614e-07 -0 1.47538e-05 -0 1.47538e-05)
(1.77723e-05 -7.48618e-07 -0 1.77723e-05 -0 1.77723e-05)
(1.77587e-05 -7.47333e-07 -0 1.77587e-05 -0 1.77587e-05)
(1.77495e-05 -7.46962e-07 -0 1.77495e-05 -0 1.77495e-05)
(1.77594e-05 -7.4755e-07 -0 1.77594e-05 -0 1.77594e-05)
(2.11263e-05 -1.12026e-06 -0 2.11263e-05 -0 2.11263e-05)
(2.11107e-05 -1.11805e-06 -0 2.11107e-05 -0 2.11107e-05)
(2.10997e-05 -1.11749e-06 -0 2.10997e-05 -0 2.10997e-05)
(2.11114e-05 -1.11841e-06 -0 2.11114e-05 -0 2.11114e-05)
(2.48174e-05 -1.67895e-06 -0 2.48174e-05 -0 2.48174e-05)
(2.48e-05 -1.67515e-06 -0 2.48e-05 -0 2.48e-05)
(2.47871e-05 -1.6743e-06 -0 2.47871e-05 -0 2.47871e-05)
(2.48007e-05 -1.67576e-06 -0 2.48007e-05 -0 2.48007e-05)
(2.88283e-05 -2.52313e-06 -0 2.88283e-05 -0 2.88283e-05)
(2.88093e-05 -2.51656e-06 -0 2.88093e-05 -0 2.88093e-05)
(2.87944e-05 -2.51526e-06 -0 2.87944e-05 -0 2.87944e-05)
(2.88099e-05 -2.5176e-06 -0 2.88099e-05 -0 2.88099e-05)
(3.31347e-05 -3.80523e-06 -0 3.31347e-05 -0 3.31347e-05)
(3.31143e-05 -3.79386e-06 -0 3.31143e-05 -0 3.31143e-05)
(3.30972e-05 -3.79182e-06 -0 3.30972e-05 -0 3.30972e-05)
(3.31149e-05 -3.79568e-06 -0 3.31149e-05 -0 3.31149e-05)
(3.77055e-05 -5.76186e-06 -0 3.77055e-05 -0 3.77055e-05)
(3.76842e-05 -5.74219e-06 -0 3.76842e-05 -0 3.76842e-05)
(3.76648e-05 -5.73912e-06 -0 3.76648e-05 -0 3.76648e-05)
(3.76847e-05 -5.74541e-06 -0 3.76847e-05 -0 3.76847e-05)
(4.25044e-05 -8.75982e-06 -0 4.25044e-05 -0 4.25044e-05)
(4.24826e-05 -8.72615e-06 -0 4.24826e-05 -0 4.24826e-05)
(4.24609e-05 -8.72133e-06 -0 4.24609e-05 -0 4.24609e-05)
(4.2483e-05 -8.73161e-06 -0 4.2483e-05 -0 4.2483e-05)
(4.74894e-05 -1.33636e-05 -0 4.74894e-05 -0 4.74894e-05)
(4.74676e-05 -1.33069e-05 -0 4.74676e-05 -0 4.74676e-05)
(4.74434e-05 -1.32988e-05 -0 4.74434e-05 -0 4.74434e-05)
(4.74678e-05 -1.33157e-05 -0 4.74678e-05 -0 4.74678e-05)
(5.26113e-05 -2.04269e-05 -0 5.26113e-05 -0 5.26113e-05)
(5.25902e-05 -2.03344e-05 -0 5.25902e-05 -0 5.25902e-05)
(5.25637e-05 -2.03189e-05 -0 5.25637e-05 -0 5.25637e-05)
(5.25904e-05 -2.0347e-05 -0 5.25904e-05 -0 5.25904e-05)
(5.78117e-05 -2.68825e-05 -0 5.78117e-05 -0 5.78117e-05)
(5.77921e-05 -2.68733e-05 -0 5.77921e-05 -0 5.77921e-05)
(5.77632e-05 -2.68599e-05 -0 5.77632e-05 -0 5.77632e-05)
(5.77922e-05 -2.68734e-05 -0 5.77922e-05 -0 5.77922e-05)
(6.30361e-05 -2.93118e-05 -0 6.30361e-05 -0 6.30361e-05)
(6.30183e-05 -2.93035e-05 -0 6.30183e-05 -0 6.30183e-05)
(6.29871e-05 -2.9289e-05 -0 6.29871e-05 -0 6.29871e-05)
(6.30185e-05 -2.93036e-05 -0 6.30185e-05 -0 6.30185e-05)
(6.82495e-05 -3.1736e-05 -0 6.82495e-05 -0 6.82495e-05)
(6.82336e-05 -3.17286e-05 -0 6.82336e-05 -0 6.82336e-05)
(6.82004e-05 -3.17132e-05 -0 6.82004e-05 -0 6.82004e-05)
(6.82341e-05 -3.17289e-05 -0 6.82341e-05 -0 6.82341e-05)
(7.34192e-05 -3.41399e-05 -0 7.34192e-05 -0 7.34192e-05)
(7.34054e-05 -3.41335e-05 -0 7.34054e-05 -0 7.34054e-05)
(7.33703e-05 -3.41172e-05 -0 7.33703e-05 -0 7.33703e-05)
(7.34063e-05 -3.41339e-05 -0 7.34063e-05 -0 7.34063e-05)
(7.85146e-05 -3.65093e-05 -0 7.85146e-05 -0 7.85146e-05)
(7.85029e-05 -3.65038e-05 -0 7.85029e-05 -0 7.85029e-05)
(7.84664e-05 -3.64869e-05 -0 7.84664e-05 -0 7.84664e-05)
(7.85044e-05 -3.65045e-05 -0 7.85043e-05 -0 7.85044e-05)
(8.35074e-05 -3.8831e-05 -0 8.35074e-05 -0 8.35074e-05)
(8.34978e-05 -3.88265e-05 -0 8.34978e-05 -0 8.34978e-05)
(8.34601e-05 -3.88089e-05 -0 8.34601e-05 -0 8.34601e-05)
(8.34999e-05 -3.88275e-05 -0 8.34999e-05 -0 8.34999e-05)
(8.83711e-05 -4.10925e-05 -0 8.83711e-05 -0 8.83711e-05)
(8.83635e-05 -4.1089e-05 -0 8.83635e-05 -0 8.83635e-05)
(8.83248e-05 -4.1071e-05 -0 8.83248e-05 -0 8.83248e-05)
(8.83662e-05 -4.10903e-05 -0 8.83662e-05 -0 8.83662e-05)
(9.30805e-05 -4.32824e-05 -0 9.30805e-05 -0 9.30805e-05)
(9.3075e-05 -4.32799e-05 -0 9.3075e-05 -0 9.3075e-05)
(9.30354e-05 -4.32614e-05 -0 9.30354e-05 -0 9.30354e-05)
(9.30782e-05 -4.32814e-05 -0 9.30782e-05 -0 9.30782e-05)
(9.76696e-05 -4.54164e-05 -0 9.76696e-05 -0 9.76696e-05)
(9.76653e-05 -4.54144e-05 -0 9.76653e-05 -0 9.76653e-05)
(9.76245e-05 -4.53954e-05 -0 9.76245e-05 -0 9.76245e-05)
(9.76689e-05 -4.5416e-05 -0 9.76689e-05 -0 9.76689e-05)
(0.000102166 -4.7507e-05 -0 0.000102166 -0 0.000102166)
(0.000102162 -4.75052e-05 -0 0.000102162 -0 0.000102162)
(0.000102119 -4.74855e-05 -0 0.000102119 -0 0.000102119)
(0.000102165 -4.75068e-05 -0 0.000102165 -0 0.000102165)
(0.000106586 -4.95627e-05 -0 0.000106586 -0 0.000106586)
(0.000106583 -4.95609e-05 -0 0.000106583 -0 0.000106583)
(0.000106538 -4.95404e-05 -0 0.000106538 -0 0.000106538)
(0.000106586 -4.95625e-05 -0 0.000106586 -0 0.000106586)
(0.000110944 -5.15888e-05 -0 0.000110944 -0 0.000110944)
(0.000110939 -5.15869e-05 -0 0.000110939 -0 0.000110939)
(0.000110894 -5.15655e-05 -0 0.000110894 -0 0.000110894)
(0.000110943 -5.15885e-05 -0 0.000110943 -0 0.000110943)
(0.000115244 -5.35882e-05 -0 0.000115244 -0 0.000115244)
(0.000115239 -5.35862e-05 -0 0.000115239 -0 0.000115239)
(0.000115191 -5.35639e-05 -0 0.000115191 -0 0.000115191)
(0.000115243 -5.35878e-05 -0 0.000115243 -0 0.000115243)
(0.000119489 -5.55623e-05 -0 0.000119489 -0 0.000119489)
(0.000119484 -5.55602e-05 -0 0.000119484 -0 0.000119484)
(0.000119434 -5.55368e-05 -0 0.000119434 -0 0.000119434)
(0.000119488 -5.55618e-05 -0 0.000119488 -0 0.000119488)
(0.000123679 -5.75108e-05 -0 0.000123679 -0 0.000123679)
(0.000123675 -5.75087e-05 -0 0.000123675 -0 0.000123675)
(0.000123622 -5.74843e-05 -0 0.000123622 -0 0.000123622)
(0.000123678 -5.75103e-05 -0 0.000123678 -0 0.000123678)
(0.000127813 -5.94329e-05 -0 0.000127813 -0 0.000127813)
(0.000127808 -5.94308e-05 -0 0.000127808 -0 0.000127808)
(0.000127753 -5.94053e-05 -0 0.000127753 -0 0.000127753)
(0.000127812 -5.94324e-05 -0 0.000127812 -0 0.000127812)
(0.000131886 -6.13268e-05 -0 0.000131886 -0 0.000131886)
(0.000131881 -6.13246e-05 -0 0.000131881 -0 0.000131881)
(0.000131824 -6.1298e-05 -0 0.000131824 -0 0.000131824)
(0.000131884 -6.13263e-05 -0 0.000131884 -0 0.000131884)
(0.000135893 -6.31902e-05 -0 0.000135893 -0 0.000135893)
(0.000135888 -6.31878e-05 -0 0.000135888 -0 0.000135888)
(0.000135828 -6.316e-05 -0 0.000135828 -0 0.000135828)
(0.000135892 -6.31896e-05 -0 0.000135892 -0 0.000135892)
(0.000139828 -6.50202e-05 -0 0.000139828 -0 0.000139828)
(0.000139823 -6.50177e-05 -0 0.000139823 -0 0.000139823)
(0.000139761 -6.49887e-05 -0 0.000139761 -0 0.000139761)
(0.000139827 -6.50196e-05 -0 0.000139827 -0 0.000139827)
(0.000143686 -6.68139e-05 -0 0.000143686 -0 0.000143686)
(0.00014368 -6.68112e-05 -0 0.00014368 -0 0.00014368)
(0.000143615 -6.67809e-05 -0 0.000143615 -0 0.000143615)
(0.000143684 -6.68132e-05 -0 0.000143684 -0 0.000143684)
(0.000147457 -6.85677e-05 -0 0.000147457 -0 0.000147457)
(0.000147451 -6.85647e-05 -0 0.000147451 -0 0.000147451)
(0.000147383 -6.85331e-05 -0 0.000147383 -0 0.000147383)
(0.000147456 -6.85669e-05 -0 0.000147456 -0 0.000147456)
(0.000151135 -7.02779e-05 -0 0.000151135 -0 0.000151135)
(0.000151128 -7.02747e-05 -0 0.000151128 -0 0.000151128)
(0.000151058 -7.02418e-05 -0 0.000151058 -0 0.000151058)
(0.000151134 -7.02771e-05 -0 0.000151134 -0 0.000151134)
(0.000154711 -7.19408e-05 -0 0.000154711 -0 0.000154711)
(0.000154704 -7.19371e-05 -0 0.000154704 -0 0.000154704)
(0.00015463 -7.19028e-05 -0 0.00015463 -0 0.00015463)
(0.000154709 -7.19399e-05 -0 0.000154709 -0 0.000154709)
(0.000158176 -7.35521e-05 -0 0.000158176 -0 0.000158176)
(0.000158167 -7.35479e-05 -0 0.000158167 -0 0.000158167)
(0.00015809 -7.35121e-05 -0 0.000158091 -0 0.00015809)
(0.000158174 -7.3551e-05 -0 0.000158174 -0 0.000158174)
(0.000161521 -7.51073e-05 -0 0.000161521 -0 0.000161521)
(0.000161511 -7.51025e-05 -0 0.000161511 -0 0.000161511)
(0.000161431 -7.50652e-05 -0 0.000161431 -0 0.000161431)
(0.000161519 -7.51061e-05 -0 0.000161519 -0 0.000161519)
(0.000164735 -7.66019e-05 -0 0.000164735 -0 0.000164735)
(0.000164723 -7.65963e-05 -0 0.000164723 -0 0.000164723)
(0.00016464 -7.65575e-05 -0 0.00016464 -0 0.00016464)
(0.000164732 -7.66006e-05 -0 0.000164732 -0 0.000164732)
(0.000167809 -7.8031e-05 -0 0.000167809 -0 0.000167809)
(0.000167795 -7.80245e-05 -0 0.000167795 -0 0.000167795)
(0.000167708 -7.79842e-05 -0 0.000167708 -0 0.000167708)
(0.000167805 -7.80295e-05 -0 0.000167805 -0 0.000167805)
(0.00017073 -7.93894e-05 -0 0.00017073 -0 0.00017073)
(0.000170714 -7.93819e-05 -0 0.000170714 -0 0.000170714)
(0.000170624 -7.93401e-05 -0 0.000170624 -0 0.000170624)
(0.000170726 -7.93877e-05 -0 0.000170726 -0 0.000170726)
(0.000173488 -8.06718e-05 -0 0.000173488 -0 0.000173488)
(0.000173469 -8.06631e-05 -0 0.000173469 -0 0.000173469)
(0.000173376 -8.06197e-05 -0 0.000173376 -0 0.000173376)
(0.000173483 -8.06698e-05 -0 0.000173483 -0 0.000173483)
(0.00017607 -8.18723e-05 -0 0.00017607 -0 0.00017607)
(0.000176048 -8.18625e-05 -0 0.000176048 -0 0.000176048)
(0.000175952 -8.18176e-05 -0 0.000175952 -0 0.000175952)
(0.000176065 -8.18702e-05 -0 0.000176065 -0 0.000176065)
(0.000178463 -8.29851e-05 -0 0.000178463 -0 0.000178463)
(0.000178439 -8.29741e-05 -0 0.000178439 -0 0.000178439)
(0.000178339 -8.29277e-05 -0 0.000178339 -0 0.000178339)
(0.000178458 -8.29829e-05 -0 0.000178458 -0 0.000178458)
(0.000180653 -8.40038e-05 -0 0.000180653 -0 0.000180653)
(0.000180627 -8.39918e-05 -0 0.000180627 -0 0.000180627)
(0.000180524 -8.39439e-05 -0 0.000180524 -0 0.000180524)
(0.000180649 -8.40016e-05 -0 0.000180649 -0 0.000180649)
(0.000182628 -8.49218e-05 -0 0.000182628 -0 0.000182628)
(0.0001826 -8.49089e-05 -0 0.0001826 -0 0.0001826)
(0.000182494 -8.48596e-05 -0 0.000182494 -0 0.000182494)
(0.000182623 -8.49198e-05 -0 0.000182623 -0 0.000182623)
(0.000184371 -8.57324e-05 -0 0.000184371 -0 0.000184371)
(0.000184341 -8.57188e-05 -0 0.000184341 -0 0.000184341)
(0.000184232 -8.56681e-05 -0 0.000184232 -0 0.000184232)
(0.000184367 -8.57306e-05 -0 0.000184367 -0 0.000184367)
(0.000185868 -8.64284e-05 -0 0.000185868 -0 0.000185868)
(0.000185837 -8.64142e-05 -0 0.000185837 -0 0.000185837)
(0.000185725 -8.63622e-05 -0 0.000185725 -0 0.000185725)
(0.000185864 -8.6427e-05 -0 0.000185864 -0 0.000185864)
(0.000187102 -8.70025e-05 -0 0.000187102 -0 0.000187102)
(0.000187071 -8.69879e-05 -0 0.000187071 -0 0.000187071)
(0.000186956 -8.69346e-05 -0 0.000186956 -0 0.000186956)
(0.0001871 -8.70013e-05 -0 0.0001871 -0 0.0001871)
(0.000188058 -8.7447e-05 -0 0.000188058 -0 0.000188058)
(0.000188026 -8.7432e-05 -0 0.000188026 -0 0.000188026)
(0.000187909 -8.73776e-05 -0 0.000187909 -0 0.000187909)
(0.000188056 -8.7446e-05 -0 0.000188056 -0 0.000188056)
(0.000188718 -8.77539e-05 -0 0.000188718 -0 0.000188718)
(0.000188685 -8.77387e-05 -0 0.000188685 -0 0.000188685)
(0.000188566 -8.76833e-05 -0 0.000188566 -0 0.000188566)
(0.000188716 -8.77529e-05 -0 0.000188716 -0 0.000188716)
(0.000189064 -8.79149e-05 -0 0.000189064 -0 0.000189064)
(0.000189032 -8.78998e-05 -0 0.000189032 -0 0.000189032)
(0.000188911 -8.78435e-05 -0 0.000188911 -0 0.000188911)
(0.000189063 -8.79141e-05 -0 0.000189063 -0 0.000189063)
(0.000189079 -8.79215e-05 -0 0.000189079 -0 0.000189079)
(0.000189047 -8.79071e-05 -0 0.000189047 -0 0.000189047)
(0.000188924 -8.78498e-05 -0 0.000188924 -0 0.000188924)
(0.000189078 -8.79214e-05 -0 0.000189078 -0 0.000189078)
(0.000188743 -8.77657e-05 -0 0.000188743 -0 0.000188743)
(0.000188714 -8.7752e-05 -0 0.000188714 -0 0.000188714)
(0.000188589 -8.7694e-05 -0 0.000188589 -0 0.000188589)
(0.000188745 -8.77664e-05 -0 0.000188745 -0 0.000188745)
(0.000188041 -8.7439e-05 -0 0.000188041 -0 0.000188041)
(0.000188013 -8.74261e-05 -0 0.000188013 -0 0.000188013)
(0.000187887 -8.73674e-05 -0 0.000187887 -0 0.000187887)
(0.000188045 -8.74408e-05 -0 0.000188045 -0 0.000188045)
(0.000186953 -8.6933e-05 -0 0.000186953 -0 0.000186953)
(0.000186927 -8.6921e-05 -0 0.000186927 -0 0.000186927)
(0.0001868 -8.68618e-05 -0 0.000186799 -0 0.0001868)
(0.000186959 -8.6936e-05 -0 0.000186959 -0 0.000186959)
(0.000185462 -8.62398e-05 -0 0.000185462 -0 0.000185462)
(0.000185438 -8.62285e-05 -0 0.000185438 -0 0.000185438)
(0.000185309 -8.61689e-05 -0 0.000185309 -0 0.000185309)
(0.000185471 -8.62439e-05 -0 0.000185471 -0 0.000185471)
(0.000183551 -8.53513e-05 -0 0.000183551 -0 0.000183551)
(0.000183528 -8.53406e-05 -0 0.000183528 -0 0.000183528)
(0.0001834 -8.52808e-05 -0 0.0001834 -0 0.0001834)
(0.000183562 -8.53564e-05 -0 0.000183562 -0 0.000183562)
(0.000181205 -8.42601e-05 -0 0.000181205 -0 0.000181205)
(0.000181182 -8.42497e-05 -0 0.000181182 -0 0.000181182)
(0.000181054 -8.41901e-05 -0 0.000181054 -0 0.000181054)
(0.000181217 -8.42658e-05 -0 0.000181217 -0 0.000181217)
(0.000178405 -8.29585e-05 -0 0.000178405 -0 0.000178405)
(0.000178383 -8.29482e-05 -0 0.000178383 -0 0.000178383)
(0.000178256 -8.28892e-05 -0 0.000178256 -0 0.000178256)
(0.000178419 -8.29646e-05 -0 0.000178419 -0 0.000178419)
(0.000175137 -8.14388e-05 -0 0.000175137 -0 0.000175137)
(0.000175116 -8.1429e-05 -0 0.000175116 -0 0.000175116)
(0.000174991 -8.13706e-05 -0 0.00017499 -0 0.000174991)
(0.000175151 -8.14452e-05 -0 0.000175151 -0 0.000175151)
(0.000171382 -7.96926e-05 -0 0.000171382 -0 0.000171382)
(0.000171362 -7.96835e-05 -0 0.000171362 -0 0.000171362)
(0.000171239 -7.96259e-05 -0 0.000171239 -0 0.000171239)
(0.000171396 -7.96991e-05 -0 0.000171396 -0 0.000171396)
(0.000167117 -7.77094e-05 -0 0.000167117 -0 0.000167117)
(0.0001671 -7.77015e-05 -0 0.0001671 -0 0.0001671)
(0.000166978 -7.76445e-05 -0 0.000166978 -0 0.000166978)
(0.00016713 -7.77155e-05 -0 0.00016713 -0 0.00016713)
(0.00016231 -7.54744e-05 -0 0.00016231 -0 0.00016231)
(0.000162297 -7.54679e-05 -0 0.000162297 -0 0.000162297)
(0.000162175 -7.54112e-05 -0 0.000162175 -0 0.000162175)
(0.000162322 -7.54796e-05 -0 0.000162322 -0 0.000162322)
(0.000156915 -7.29656e-05 -0 0.000156915 -0 0.000156915)
(0.000156903 -7.29601e-05 -0 0.000156903 -0 0.000156903)
(0.000156779 -7.29024e-05 -0 0.000156779 -0 0.000156779)
(0.000156922 -7.2969e-05 -0 0.000156923 -0 0.000156923)
(0.000150904 -7.01705e-05 -0 0.000150904 -0 0.000150904)
(0.000150894 -7.01659e-05 -0 0.000150894 -0 0.000150894)
(0.000150769 -7.01075e-05 -0 0.000150769 -0 0.000150769)
(0.000150909 -7.01725e-05 -0 0.000150909 -0 0.000150909)
(0.000144311 -6.71047e-05 -0 0.000144311 -0 0.000144311)
(0.000144302 -6.71005e-05 -0 0.000144302 -0 0.000144302)
(0.000144175 -6.70414e-05 -0 0.000144175 -0 0.000144175)
(0.000144312 -6.71051e-05 -0 0.000144312 -0 0.000144312)
(0.000137172 -6.3785e-05 -0 0.000137172 -0 0.000137172)
(0.000137164 -6.37811e-05 -0 0.000137164 -0 0.000137164)
(0.000137034 -6.3721e-05 -0 0.000137034 -0 0.000137034)
(0.000137169 -6.37835e-05 -0 0.000137169 -0 0.000137169)
(0.000129537 -6.02345e-05 -0 0.000129537 -0 0.000129537)
(0.000129528 -6.02307e-05 -0 0.000129528 -0 0.000129528)
(0.000129396 -6.01693e-05 -0 0.000129396 -0 0.000129396)
(0.000129528 -6.02307e-05 -0 0.000129528 -0 0.000129528)
(0.000121487 -5.64915e-05 -0 0.000121487 -0 0.000121487)
(0.000121479 -5.64877e-05 -0 0.000121479 -0 0.000121479)
(0.000121344 -5.64248e-05 -0 0.000121344 -0 0.000121344)
(0.000121473 -5.6485e-05 -0 0.000121473 -0 0.000121473)
(0.00011312 -5.26008e-05 -0 0.00011312 -0 0.00011312)
(0.000113112 -5.2597e-05 -0 0.000113112 -0 0.000113112)
(0.000112973 -5.25327e-05 -0 0.000112973 -0 0.000112973)
(0.0001131 -5.25914e-05 -0 0.0001131 -0 0.0001131)
(0.000104541 -3.56349e-05 -0 0.000104541 -0 0.000104541)
(0.000104533 -3.54971e-05 -0 0.000104533 -0 0.000104533)
(0.000104392 -3.49262e-05 -0 0.000104392 -0 0.000104392)
(0.000104514 -3.55373e-05 -0 0.000104514 -0 0.000104514)
(9.59466e-05 -2.31543e-05 -0 9.59466e-05 -0 9.59466e-05)
(9.59395e-05 -2.30698e-05 -0 9.59395e-05 -0 9.59395e-05)
(9.57994e-05 -2.27391e-05 -0 9.57994e-05 -0 9.57994e-05)
(9.59136e-05 -2.30786e-05 -0 9.59136e-05 -0 9.59136e-05)
(8.7515e-05 -1.52489e-05 -0 8.7515e-05 -0 8.7515e-05)
(8.75097e-05 -1.5224e-05 -0 8.75097e-05 -0 8.75097e-05)
(8.73732e-05 -1.50244e-05 -0 8.73732e-05 -0 8.73732e-05)
(8.74769e-05 -1.52293e-05 -0 8.74769e-05 -0 8.74769e-05)
(7.93998e-05 -1.02007e-05 -0 7.93998e-05 -0 7.93998e-05)
(7.93962e-05 -1.01857e-05 -0 7.93962e-05 -0 7.93962e-05)
(7.92649e-05 -1.00646e-05 -0 7.92649e-05 -0 7.92649e-05)
(7.93566e-05 -1.01828e-05 -0 7.93565e-05 -0 7.93565e-05)
(7.17338e-05 -6.91677e-06 -0 7.17338e-05 -0 7.17338e-05)
(7.17315e-05 -6.90719e-06 -0 7.17315e-05 -0 7.17315e-05)
(7.16067e-05 -6.83217e-06 -0 7.16067e-05 -0 7.16067e-05)
(7.16856e-05 -6.90053e-06 -0 7.16856e-05 -0 7.16856e-05)
(6.46311e-05 -4.75202e-06 -0 6.46311e-05 -0 6.46311e-05)
(6.46298e-05 -4.74608e-06 -0 6.46299e-05 -0 6.46298e-05)
(6.4512e-05 -4.69819e-06 -0 6.4512e-05 -0 6.4512e-05)
(6.45785e-05 -4.73827e-06 -0 6.45785e-05 -0 6.45785e-05)
(5.81858e-05 -3.30623e-06 -0 5.81858e-05 -0 5.81858e-05)
(5.81854e-05 -3.30275e-06 -0 5.81854e-05 -0 5.81854e-05)
(5.80748e-05 -3.27125e-06 -0 5.80748e-05 -0 5.80748e-05)
(5.81299e-05 -3.29545e-06 -0 5.81299e-05 -0 5.81299e-05)
(5.24707e-05 -2.32644e-06 -0 5.24706e-05 -0 5.24707e-05)
(5.24708e-05 -2.3244e-06 -0 5.24708e-05 -0 5.24708e-05)
(5.23673e-05 -2.30327e-06 -0 5.23673e-05 -0 5.23673e-05)
(5.24125e-05 -2.31853e-06 -0 5.24125e-05 -0 5.24125e-05)
(4.75355e-05 -1.64951e-06 -0 4.75355e-05 -0 4.75355e-05)
(4.75362e-05 -1.64826e-06 -0 4.75362e-05 -0 4.75362e-05)
(4.74396e-05 -1.63393e-06 -0 4.74396e-05 -0 4.74396e-05)
(4.74766e-05 -1.64407e-06 -0 4.74766e-05 -0 4.74766e-05)
(4.34096e-05 -1.16897e-06 -0 4.34096e-05 -0 4.34096e-05)
(4.34108e-05 -1.16814e-06 -0 4.34108e-05 -0 4.34108e-05)
(4.33207e-05 -1.15841e-06 -0 4.33207e-05 -0 4.33207e-05)
(4.33512e-05 -1.16547e-06 -0 4.33512e-05 -0 4.33512e-05)
(4.01059e-05 -8.14598e-07 -0 4.01059e-05 -0 4.01059e-05)
(4.01074e-05 -8.13992e-07 -0 4.01074e-05 -0 4.01074e-05)
(4.0023e-05 -8.07446e-07 -0 4.0023e-05 -0 4.0023e-05)
(4.00485e-05 -8.12435e-07 -0 4.00485e-05 -0 4.00485e-05)
(3.76266e-05 -5.39392e-07 -0 3.76266e-05 -0 3.76266e-05)
(3.76284e-05 -5.38901e-07 -0 3.76284e-05 -0 3.76284e-05)
(3.75485e-05 -5.34698e-07 -0 3.75485e-05 -0 3.75485e-05)
(3.75706e-05 -5.38142e-07 -0 3.75706e-05 -0 3.75706e-05)
(3.59703e-05 -3.10863e-07 -0 3.59703e-05 -0 3.59703e-05)
(3.59722e-05 -3.10507e-07 -0 3.59722e-05 -0 3.59722e-05)
(3.58955e-05 -3.08134e-07 -0 3.58955e-05 -0 3.58955e-05)
(3.59155e-05 -3.10215e-07 -0 3.59155e-05 -0 3.59155e-05)
(3.51359e-05 -1.02885e-07 -0 3.51359e-05 -0 3.51359e-05)
(3.51379e-05 -1.02745e-07 -0 3.51379e-05 -0 3.51379e-05)
(3.50628e-05 -1.01971e-07 -0 3.50628e-05 -0 3.50628e-05)
(3.50819e-05 -1.02681e-07 -0 3.50819e-05 -0 3.50819e-05)
)
;

boundaryField
{
    inlet
    {
        type            cyclic;
    }
    outlet
    {
        type            cyclic;
    }
    fixedWalls-bottom
    {
        type            kqRWallFunction;
        value           nonuniform List<symmTensor> 4((4.04993e-11 -0 -0 4.04993e-11 -0 4.04993e-11) (4.04645e-11 -0 -0 4.04645e-11 -0 4.04645e-11) (4.04436e-11 -0 -0 4.04436e-11 -0 4.04436e-11) (4.04687e-11 -0 -0 4.04687e-11 -0 4.04687e-11));
    }
    fixedWalls-top
    {
        type            symmetry;
    }
    frontAndBack
    {
        type            empty;
    }
}


// ************************************************************************* //
