/*--------------------------------*- C++ -*----------------------------------*\
  =========                 |
  \\      /  F ield         | OpenFOAM: The Open Source CFD Toolbox
   \\    /   O peration     | Website:  https://openfoam.org
    \\  /    A nd           | Version:  10
     \\/     M anipulation  |
\*---------------------------------------------------------------------------*/
FoamFile
{
    format      ascii;
    class       volScalarField;
    location    "2500";
    object      nut;
}
// * * * * * * * * * * * * * * * * * * * * * * * * * * * * * * * * * * * * * //

dimensions      [0 2 -1 0 0 0 0];

internalField   nonuniform List<scalar> 
400
(
5.35291e-11
5.35695e-11
5.35913e-11
5.35799e-11
9.37783e-09
9.38491e-09
9.38873e-09
9.38674e-09
1.9602e-07
1.96169e-07
1.96248e-07
1.96207e-07
1.47641e-06
1.47755e-06
1.47815e-06
1.47783e-06
6.31663e-06
6.32184e-06
6.32434e-06
6.32295e-06
1.86379e-05
1.86549e-05
1.8662e-05
1.86578e-05
4.20302e-05
4.20727e-05
4.20878e-05
4.20778e-05
7.77215e-05
7.78057e-05
7.78312e-05
7.78124e-05
0.000124478
0.000124615
0.000124651
0.000124621
0.000179987
0.000180176
0.00018022
0.000180177
0.000239654
0.000239756
0.000239818
0.000239782
0.000301124
0.000301212
0.000301275
0.00030123
0.00036676
0.00036684
0.000366897
0.000366835
0.000436394
0.000436462
0.000436508
0.000436422
0.000509577
0.000509632
0.000509661
0.000509536
0.000585865
0.000585902
0.000585916
0.000585735
0.000664819
0.000664843
0.000664841
0.00066459
0.00074587
0.000745892
0.000745875
0.000745542
0.000828699
0.000828729
0.000828702
0.000828277
0.000913066
0.000913106
0.000913077
0.000912559
0.000998692
0.000998743
0.000998716
0.000998114
0.00108535
0.0010854
0.00108538
0.00108471
0.0011729
0.00117295
0.00117294
0.00117222
0.00126133
0.00126137
0.00126137
0.00126062
0.00135083
0.00135084
0.00135085
0.0013501
0.00144175
0.00144173
0.00144176
0.00144102
0.00153469
0.00153463
0.00153469
0.001534
0.00163032
0.00163024
0.00163037
0.00162971
0.00172918
0.00172911
0.00172933
0.00172866
0.00183096
0.00183094
0.00183122
0.00183046
0.00193311
0.00193316
0.00193342
0.00193246
0.00202787
0.00202796
0.00202807
0.00202688
0.00209841
0.00209822
0.00209784
0.00209653
0.00215507
0.00215488
0.00215447
0.0021535
0.00220637
0.00220622
0.0022057
0.00220519
0.00225218
0.00225204
0.00225158
0.00225137
0.00229251
0.0022923
0.00229196
0.00229198
0.0023273
0.00232699
0.0023268
0.00232705
0.0023565
0.00235618
0.00235614
0.00235664
0.00238026
0.00237995
0.00238004
0.00238084
0.00239873
0.00239839
0.00239866
0.00239975
0.00241211
0.00241161
0.00241218
0.00241353
0.00242053
0.00241991
0.00242076
0.00242235
0.00242424
0.00242341
0.00242453
0.0024264
0.00242335
0.00242236
0.00242372
0.00242588
0.0024181
0.00241696
0.00241855
0.00242098
0.0024087
0.00240744
0.00240926
0.00241193
0.00239541
0.00239402
0.00239606
0.00239896
0.00237846
0.00237693
0.00237919
0.00238227
0.00235807
0.00235639
0.00235884
0.00236212
0.00233446
0.00233263
0.0023352
0.00233871
0.00230788
0.00230589
0.00230847
0.00231225
0.00227852
0.00227647
0.00227887
0.00228294
0.00224643
0.0022442
0.00224683
0.00225096
0.00221189
0.00220952
0.00221257
0.0022165
0.00217523
0.00217292
0.00217584
0.00217988
0.00213644
0.00213463
0.00213699
0.00214127
0.00209593
0.00209375
0.00209653
0.0021009
0.00205374
0.00205206
0.00205413
0.00205896
0.00200956
0.00200877
0.00201033
0.00201559
0.00196453
0.00196394
0.00196542
0.00197088
0.00191825
0.00191799
0.00191958
0.00192497
0.00187106
0.00187094
0.00187276
0.00187818
0.00182343
0.00182274
0.00182506
0.00183031
0.00177398
0.00177446
0.00177616
0.00178159
0.00172467
0.00172472
0.00172679
0.00173191
0.00167532
0.00167394
0.00167729
0.00168143
0.00162475
0.00162345
0.00162696
0.00163078
0.00157366
0.00157267
0.0015757
0.00157991
0.00152211
0.00152236
0.00152396
0.00152842
0.00147026
0.00147039
0.00147201
0.00147698
0.00141776
0.00141965
0.00141933
0.00142547
0.00136612
0.00136747
0.00136781
0.00137345
0.00131498
0.00131448
0.00131695
0.00132116
0.00126266
0.00126275
0.00126449
0.00126944
0.00121026
0.00121012
0.00121171
0.00121676
0.00115771
0.00115918
0.00115932
0.00116418
0.00110536
0.00110689
0.00110701
0.00111213
0.001053
0.00105404
0.00105482
0.00106057
0.00100001
0.00100397
0.00100133
0.00100952
0.000948786
0.000952491
0.000949726
0.0009581
0.000898593
0.000900783
0.000898427
0.000906931
0.000850729
0.000848125
0.00084783
0.000856339
0.00079972
0.000799534
0.000798394
0.000804746
0.000747891
0.000749801
0.000748269
0.000753588
0.000697766
0.000701186
0.00069851
0.000704464
0.000649233
0.000651279
0.000649728
0.000654228
0.000603359
0.000603121
0.000601734
0.000606247
0.00055734
0.000556156
0.000554928
0.000558776
0.000512042
0.000509708
0.000509667
0.000513802
0.000466955
0.000463325
0.000466062
0.000471174
0.000423465
0.000421366
0.000423898
0.00042848
0.000384255
0.000382722
0.000384141
0.00038989
0.000349276
0.000347984
0.000348111
0.000355317
0.000318801
0.000317605
0.000317304
0.00032482
0.000293177
0.000292204
0.000291741
0.000298993
0.000272444
0.000272516
0.00027178
0.000278245
0.000255386
0.000260403
0.000257658
0.000263057
0.000245776
0.000249641
0.000249237
0.000253331
0.000240949
0.000240599
0.000246322
0.000249264
)
;

boundaryField
{
    inlet
    {
        type            cyclic;
    }
    outlet
    {
        type            cyclic;
    }
    fixedWalls-bottom
    {
        type            nutkWallFunction;
        Cmu             0.09;
        kappa           0.41;
        E               9.8;
        value           uniform 0;
    }
    fixedWalls-top
    {
        type            symmetry;
    }
    frontAndBack
    {
        type            empty;
    }
}


// ************************************************************************* //
