/*--------------------------------*- C++ -*----------------------------------*\
  =========                 |
  \\      /  F ield         | OpenFOAM: The Open Source CFD Toolbox
   \\    /   O peration     | Website:  https://openfoam.org
    \\  /    A nd           | Version:  10
     \\/     M anipulation  |
\*---------------------------------------------------------------------------*/
FoamFile
{
    format      ascii;
    class       volScalarField;
    location    "2500";
    object      omega;
}
// * * * * * * * * * * * * * * * * * * * * * * * * * * * * * * * * * * * * * //

dimensions      [0 0 -1 0 0 0 0];

internalField   nonuniform List<scalar> 
400
(
5114.2
5114.2
5114.2
5114.2
875.376
875.376
875.376
875.376
296.097
296.096
296.097
296.096
141.852
141.85
141.85
141.85
83.8016
83.797
83.7965
83.7971
57.0305
57.0224
57.0214
57.0223
42.7611
42.7496
42.7483
42.7494
34.1639
34.1502
34.1487
34.1499
28.4176
28.4034
28.4019
28.403
24.2636
24.2501
24.2488
24.2498
21.0886
21.0769
21.0759
21.0767
18.5582
18.5487
18.5481
18.5487
16.4772
16.4701
16.4699
16.4704
14.7281
14.7234
14.7233
14.7241
13.2352
13.2321
13.2324
13.2341
11.9462
11.9446
11.945
11.9476
10.8239
10.8232
10.8241
10.8275
9.84063
9.84046
9.84195
9.84608
8.97505
8.97498
8.97732
8.98188
8.21048
8.21066
8.21334
8.21828
7.53359
7.53393
7.53678
7.54195
6.93343
6.93386
6.93675
6.942
6.40088
6.40134
6.40416
6.40933
5.92814
5.9286
5.93127
5.9362
5.50846
5.5089
5.51136
5.51594
5.13591
5.13631
5.13849
5.14266
4.80517
4.80553
4.80741
4.81112
4.51148
4.51178
4.51336
4.51662
4.25049
4.25072
4.25201
4.25484
4.01819
4.01836
4.01941
4.02183
3.81085
3.81098
3.81185
3.81385
3.62503
3.62514
3.62584
3.62744
3.45738
3.4575
3.45806
3.45925
3.30537
3.30552
3.30606
3.3067
3.1673
3.16745
3.16807
3.16807
3.04155
3.0417
3.04227
3.04192
2.92675
2.92699
2.92741
2.92684
2.82172
2.82205
2.82229
2.82155
2.72548
2.72576
2.72586
2.72492
2.63697
2.63717
2.63715
2.63601
2.55531
2.55546
2.55532
2.55397
2.47972
2.47992
2.4796
2.47806
2.40961
2.40978
2.40935
2.40762
2.34437
2.3445
2.34398
2.34206
2.28346
2.28357
2.28296
2.28087
2.22645
2.22654
2.22584
2.22359
2.17293
2.173
2.17222
2.16982
2.12254
2.12261
2.12175
2.11921
2.07498
2.07505
2.07413
2.07146
2.03
2.03008
2.02911
2.02631
1.98733
1.98745
1.98646
1.98353
1.94679
1.94694
1.946
1.9429
1.9082
1.9083
1.90758
1.90427
1.87154
1.8717
1.87083
1.86751
1.83661
1.8368
1.83563
1.83251
1.80318
1.80325
1.80224
1.79901
1.77129
1.7709
1.77038
1.76694
1.74066
1.74052
1.7397
1.73615
1.71128
1.71071
1.71051
1.70653
1.68342
1.68215
1.6824
1.67802
1.65616
1.65484
1.65515
1.65059
1.62977
1.62846
1.62863
1.62418
1.6041
1.60301
1.6029
1.59865
1.57896
1.57853
1.57795
1.57387
1.55548
1.55415
1.55406
1.5497
1.53197
1.53109
1.53061
1.5262
1.50857
1.50904
1.50719
1.50345
1.48635
1.48683
1.48496
1.48109
1.46473
1.46502
1.46343
1.45917
1.4437
1.44292
1.44211
1.43785
1.42313
1.42256
1.42144
1.41669
1.40341
1.40125
1.40184
1.39586
1.38306
1.3816
1.3814
1.37581
1.36236
1.36314
1.36042
1.3564
1.34309
1.34394
1.34117
1.33696
1.32432
1.32484
1.3226
1.31779
1.30607
1.30457
1.30394
1.29914
1.28807
1.28637
1.28566
1.28049
1.27065
1.26945
1.26775
1.26187
1.25463
1.24981
1.25197
1.2431
1.23722
1.23259
1.23445
1.22528
1.21954
1.21616
1.21711
1.20786
1.2004
1.20145
1.19941
1.191
1.184
1.18159
1.18071
1.17507
1.16778
1.1645
1.16386
1.15849
1.15176
1.14806
1.14739
1.1421
1.13593
1.13204
1.13131
1.12596
1.12027
1.11639
1.11557
1.11007
1.10475
1.10133
1.10011
1.09433
1.0893
1.08815
1.08468
1.07854
1.07522
1.07893
1.06979
1.06289
1.06159
1.06549
1.05732
1.04767
1.04849
1.05225
1.04722
1.03259
1.03607
1.03968
1.03832
1.01798
1.02453
1.02818
1.02808
1.00508
1.01433
1.01756
1.01785
0.994086
1.00685
1.00677
1.00763
0.985537
1.00727
0.989278
0.996624
0.978658
0.99919
0.985421
0.983629
0.970496
0.990278
0.99269
0.967107
0.957866
)
;

boundaryField
{
    inlet
    {
        type            cyclic;
    }
    outlet
    {
        type            cyclic;
    }
    fixedWalls-bottom
    {
        beta1           0.075;
        blended         0;
        type            omegaWallFunction;
        value           uniform 5114.2;
    }
    fixedWalls-top
    {
        type            symmetry;
    }
    frontAndBack
    {
        type            empty;
    }
}


// ************************************************************************* //
