/*--------------------------------*- C++ -*----------------------------------*\
  =========                 |
  \\      /  F ield         | OpenFOAM: The Open Source CFD Toolbox
   \\    /   O peration     | Website:  https://openfoam.org
    \\  /    A nd           | Version:  10
     \\/     M anipulation  |
\*---------------------------------------------------------------------------*/
FoamFile
{
    format      ascii;
    class       volVectorField;
    location    "2500";
    object      U;
}
// * * * * * * * * * * * * * * * * * * * * * * * * * * * * * * * * * * * * * //

dimensions      [0 1 -1 0 0 0 0];

internalField   nonuniform List<vector> 
400
(
(0.0273313 -4.89693e-09 0)
(0.0273328 -4.68775e-09 0)
(0.0273365 -2.63946e-09 0)
(0.0273349 4.95696e-09 0)
(0.0822275 2.96981e-09 0)
(0.0822315 -5.06497e-08 0)
(0.0822416 -2.0133e-08 0)
(0.0822373 5.09739e-08 0)
(0.13771 4.00473e-08 0)
(0.137716 -1.36131e-07 0)
(0.137732 -5.65958e-08 0)
(0.137725 1.37025e-07 0)
(0.193655 9.27137e-08 0)
(0.193663 -2.59056e-07 0)
(0.193684 -1.07503e-07 0)
(0.193675 2.60374e-07 0)
(0.24966 1.55107e-07 0)
(0.24967 -4.14451e-07 0)
(0.249694 -1.69497e-07 0)
(0.249683 4.16165e-07 0)
(0.304823 2.22509e-07 0)
(0.304835 -5.957e-07 0)
(0.30486 -2.36683e-07 0)
(0.304848 5.97779e-07 0)
(0.357799 2.86777e-07 0)
(0.357812 -7.90416e-07 0)
(0.357837 -3.00772e-07 0)
(0.357823 7.92815e-07 0)
(0.407274 3.38758e-07 0)
(0.407284 -9.78715e-07 0)
(0.407308 -3.52537e-07 0)
(0.407292 9.81403e-07 0)
(0.452473 3.70835e-07 0)
(0.45248 -1.13742e-06 0)
(0.4525 -3.84401e-07 0)
(0.452483 1.14035e-06 0)
(0.493267 3.78792e-07 0)
(0.493267 -1.2481e-06 0)
(0.493283 -3.92159e-07 0)
(0.493266 1.25126e-06 0)
(0.53003 3.5654e-07 0)
(0.530027 -1.32291e-06 0)
(0.53004 -3.69746e-07 0)
(0.53002 1.32626e-06 0)
(0.563341 3.05772e-07 0)
(0.563339 -1.36588e-06 0)
(0.563348 -3.18836e-07 0)
(0.563327 1.3694e-06 0)
(0.593662 2.25735e-07 0)
(0.593661 -1.39909e-06 0)
(0.593668 -2.38677e-07 0)
(0.593644 1.40276e-06 0)
(0.621334 1.21677e-07 0)
(0.621334 -1.42791e-06 0)
(0.621339 -1.34506e-07 0)
(0.621314 1.43172e-06 0)
(0.646662 8.22721e-11 0)
(0.646663 -1.45527e-06 0)
(0.646667 -1.28132e-08 0)
(0.64664 1.4592e-06 0)
(0.669918 -1.32678e-07 0)
(0.66992 -1.48358e-06 0)
(0.669923 1.20038e-07 0)
(0.669896 1.48762e-06 0)
(0.691342 -2.70509e-07 0)
(0.691344 -1.51434e-06 0)
(0.691347 2.57949e-07 0)
(0.69132 1.51848e-06 0)
(0.711144 -4.07808e-07 0)
(0.711147 -1.54724e-06 0)
(0.71115 3.95324e-07 0)
(0.711124 1.55147e-06 0)
(0.729509 -5.40065e-07 0)
(0.729511 -1.58058e-06 0)
(0.729514 5.27648e-07 0)
(0.729489 1.5849e-06 0)
(0.74659 -6.63992e-07 0)
(0.746592 -1.61162e-06 0)
(0.746595 6.5164e-07 0)
(0.746572 1.61602e-06 0)
(0.762524 -7.77923e-07 0)
(0.762524 -1.63765e-06 0)
(0.762527 7.6563e-07 0)
(0.762506 1.64212e-06 0)
(0.777424 -8.81679e-07 0)
(0.777424 -1.65656e-06 0)
(0.777426 8.69442e-07 0)
(0.777408 1.66111e-06 0)
(0.791391 -9.76308e-07 0)
(0.791389 -1.66737e-06 0)
(0.791392 9.64124e-07 0)
(0.791375 1.67198e-06 0)
(0.804509 -1.06361e-06 0)
(0.804507 -1.67019e-06 0)
(0.804508 1.05148e-06 0)
(0.804493 1.67486e-06 0)
(0.81685 -1.146e-06 0)
(0.816847 -1.66603e-06 0)
(0.816848 1.13392e-06 0)
(0.816834 1.67075e-06 0)
(0.828475 -1.22645e-06 0)
(0.828472 -1.65639e-06 0)
(0.828473 1.21442e-06 0)
(0.82846 1.66117e-06 0)
(0.839435 -1.30867e-06 0)
(0.839432 -1.64238e-06 0)
(0.839432 1.29668e-06 0)
(0.839419 1.64721e-06 0)
(0.849771 -1.39729e-06 0)
(0.849769 -1.62366e-06 0)
(0.849768 1.38534e-06 0)
(0.849755 1.62854e-06 0)
(0.859521 -1.49689e-06 0)
(0.859519 -1.59763e-06 0)
(0.859516 1.485e-06 0)
(0.859504 1.60256e-06 0)
(0.868718 -1.60959e-06 0)
(0.868716 -1.56006e-06 0)
(0.868712 1.59775e-06 0)
(0.868699 1.56504e-06 0)
(0.877401 -1.73151e-06 0)
(0.877398 -1.50772e-06 0)
(0.877392 1.71971e-06 0)
(0.87738 1.51273e-06 0)
(0.885623 -1.85336e-06 0)
(0.885619 -1.44008e-06 0)
(0.885612 1.8416e-06 0)
(0.885602 1.44514e-06 0)
(0.893473 -1.96222e-06 0)
(0.893469 -1.36366e-06 0)
(0.893462 1.9505e-06 0)
(0.893455 1.36877e-06 0)
(0.901029 -2.0539e-06 0)
(0.901023 -1.27996e-06 0)
(0.901017 2.04223e-06 0)
(0.901012 1.2851e-06 0)
(0.908321 -2.12521e-06 0)
(0.908315 -1.19568e-06 0)
(0.90831 2.11359e-06 0)
(0.908307 1.20085e-06 0)
(0.915372 -2.18118e-06 0)
(0.915366 -1.1097e-06 0)
(0.915361 2.16961e-06 0)
(0.915359 1.11491e-06 0)
(0.922202 -2.22533e-06 0)
(0.922195 -1.02262e-06 0)
(0.92219 2.21381e-06 0)
(0.92219 1.02787e-06 0)
(0.928827 -2.25963e-06 0)
(0.928819 -9.34736e-07 0)
(0.928815 2.24815e-06 0)
(0.928815 9.40021e-07 0)
(0.935263 -2.28568e-06 0)
(0.935255 -8.46042e-07 0)
(0.935252 2.27426e-06 0)
(0.935253 8.5136e-07 0)
(0.941526 -2.30491e-06 0)
(0.941518 -7.56939e-07 0)
(0.941514 2.29355e-06 0)
(0.941516 7.6229e-07 0)
(0.947628 -2.319e-06 0)
(0.947619 -6.6685e-07 0)
(0.947616 2.3077e-06 0)
(0.947618 6.72232e-07 0)
(0.95358 -2.33019e-06 0)
(0.953572 -5.76424e-07 0)
(0.953569 2.31895e-06 0)
(0.953571 5.81836e-07 0)
(0.959395 -2.34063e-06 0)
(0.959386 -4.85857e-07 0)
(0.959383 2.32945e-06 0)
(0.959385 4.91297e-07 0)
(0.96508 -2.35321e-06 0)
(0.965072 -3.95851e-07 0)
(0.965069 2.34209e-06 0)
(0.96507 4.01318e-07 0)
(0.970645 -2.36982e-06 0)
(0.970637 -3.07151e-07 0)
(0.970635 2.35877e-06 0)
(0.970635 3.12644e-07 0)
(0.976099 -2.39239e-06 0)
(0.976091 -2.20016e-07 0)
(0.976089 2.38142e-06 0)
(0.976088 2.25531e-07 0)
(0.981448 -2.42193e-06 0)
(0.981441 -1.35139e-07 0)
(0.981438 2.41103e-06 0)
(0.981437 1.40677e-07 0)
(0.986699 -2.45879e-06 0)
(0.986692 -5.2746e-08 0)
(0.98669 2.44797e-06 0)
(0.986688 5.83035e-08 0)
(0.991859 -2.50257e-06 0)
(0.991853 2.69012e-08 0)
(0.99185 2.49184e-06 0)
(0.991847 -2.13253e-08 0)
(0.996932 -2.55355e-06 0)
(0.996927 1.03253e-07 0)
(0.996924 2.5429e-06 0)
(0.996921 -9.76634e-08 0)
(1.00193 -2.61087e-06 0)
(1.00192 1.75584e-07 0)
(1.00192 2.60031e-06 0)
(1.00191 -1.6998e-07 0)
(1.00684 -2.67427e-06 0)
(1.00684 2.42119e-07 0)
(1.00684 2.6638e-06 0)
(1.00683 -2.36505e-07 0)
(1.01169 -2.74179e-06 0)
(1.01169 2.9956e-07 0)
(1.01168 2.73141e-06 0)
(1.01168 -2.93939e-07 0)
(1.01647 -2.81288e-06 0)
(1.01647 3.46797e-07 0)
(1.01646 2.80261e-06 0)
(1.01646 -3.41174e-07 0)
(1.02118 -2.88633e-06 0)
(1.02118 3.84298e-07 0)
(1.02118 2.87616e-06 0)
(1.02118 -3.78669e-07 0)
(1.02584 -2.96158e-06 0)
(1.02584 4.13071e-07 0)
(1.02584 2.95152e-06 0)
(1.02583 -4.07446e-07 0)
(1.03044 -3.03455e-06 0)
(1.03044 4.3652e-07 0)
(1.03044 3.02459e-06 0)
(1.03044 -4.30899e-07 0)
(1.03499 -3.10696e-06 0)
(1.03499 4.54708e-07 0)
(1.03499 3.09712e-06 0)
(1.03499 -4.49098e-07 0)
(1.03949 -3.17297e-06 0)
(1.03949 4.65676e-07 0)
(1.03949 3.16324e-06 0)
(1.03949 -4.60077e-07 0)
(1.04395 -3.23531e-06 0)
(1.04395 4.73479e-07 0)
(1.04394 3.2257e-06 0)
(1.04394 -4.67895e-07 0)
(1.04835 -3.2918e-06 0)
(1.04835 4.77204e-07 0)
(1.04835 3.28231e-06 0)
(1.04835 -4.71641e-07 0)
(1.05272 -3.34031e-06 0)
(1.05272 4.82152e-07 0)
(1.05272 3.33095e-06 0)
(1.05272 -4.76615e-07 0)
(1.05705 -3.38051e-06 0)
(1.05705 4.87378e-07 0)
(1.05705 3.37128e-06 0)
(1.05704 -4.81867e-07 0)
(1.06134 -3.41317e-06 0)
(1.06133 4.89557e-07 0)
(1.06134 3.40408e-06 0)
(1.06133 -4.84083e-07 0)
(1.06559 -3.4339e-06 0)
(1.06559 4.90171e-07 0)
(1.06559 3.42496e-06 0)
(1.06558 -4.8472e-07 0)
(1.06981 -3.4473e-06 0)
(1.0698 4.8412e-07 0)
(1.06981 3.4385e-06 0)
(1.0698 -4.78706e-07 0)
(1.07399 -3.45501e-06 0)
(1.07399 4.75954e-07 0)
(1.07399 3.44637e-06 0)
(1.07399 -4.7057e-07 0)
(1.07814 -3.46244e-06 0)
(1.07814 4.58726e-07 0)
(1.07815 3.45396e-06 0)
(1.07814 -4.5339e-07 0)
(1.08227 -3.47624e-06 0)
(1.08227 4.29724e-07 0)
(1.08227 3.46793e-06 0)
(1.08227 -4.24442e-07 0)
(1.08636 -3.48381e-06 0)
(1.08636 3.89705e-07 0)
(1.08636 3.47568e-06 0)
(1.08636 -3.84468e-07 0)
(1.09043 -3.49309e-06 0)
(1.09043 3.40028e-07 0)
(1.09043 3.48515e-06 0)
(1.09043 -3.34842e-07 0)
(1.09447 -3.48416e-06 0)
(1.09447 2.88159e-07 0)
(1.09447 3.47642e-06 0)
(1.09447 -2.83028e-07 0)
(1.09848 -3.46412e-06 0)
(1.09848 2.41771e-07 0)
(1.09848 3.45659e-06 0)
(1.09848 -2.36678e-07 0)
(1.10246 -3.43023e-06 0)
(1.10246 2.08402e-07 0)
(1.10246 3.42293e-06 0)
(1.10247 -2.03358e-07 0)
(1.10642 -3.38879e-06 0)
(1.10642 1.83763e-07 0)
(1.10642 3.38173e-06 0)
(1.10642 -1.78789e-07 0)
(1.11035 -3.35614e-06 0)
(1.11035 1.64178e-07 0)
(1.11035 3.3493e-06 0)
(1.11035 -1.59286e-07 0)
(1.11425 -3.31454e-06 0)
(1.11425 1.48128e-07 0)
(1.11425 3.30796e-06 0)
(1.11426 -1.43292e-07 0)
(1.11812 -3.26891e-06 0)
(1.11812 1.35335e-07 0)
(1.11812 3.26257e-06 0)
(1.11813 -1.30596e-07 0)
(1.12196 -3.22217e-06 0)
(1.12196 1.37935e-07 0)
(1.12196 3.2161e-06 0)
(1.12197 -1.33305e-07 0)
(1.12576 -3.16086e-06 0)
(1.12576 1.5531e-07 0)
(1.12576 3.1551e-06 0)
(1.12577 -1.50749e-07 0)
(1.12953 -3.10039e-06 0)
(1.12952 1.83882e-07 0)
(1.12952 3.09494e-06 0)
(1.12953 -1.79383e-07 0)
(1.13324 -3.02421e-06 0)
(1.13324 2.04988e-07 0)
(1.13324 3.01908e-06 0)
(1.13324 -2.00584e-07 0)
(1.1369 -2.93511e-06 0)
(1.1369 1.71564e-07 0)
(1.13691 2.93023e-06 0)
(1.13691 -1.67372e-07 0)
(1.14051 -2.80765e-06 0)
(1.14051 1.24946e-07 0)
(1.14051 2.80299e-06 0)
(1.14051 -1.20855e-07 0)
(1.14405 -2.68837e-06 0)
(1.14404 5.31945e-08 0)
(1.14405 2.68405e-06 0)
(1.14405 -4.92708e-08 0)
(1.1475 -2.55621e-06 0)
(1.1475 4.59803e-09 0)
(1.1475 2.55215e-06 0)
(1.14751 -9.26479e-10 0)
(1.15086 -2.45267e-06 0)
(1.15086 -1.41001e-09 0)
(1.15086 2.44892e-06 0)
(1.15087 4.98394e-09 0)
(1.15411 -2.341e-06 0)
(1.15411 4.68535e-09 0)
(1.15411 2.33762e-06 0)
(1.15411 -1.25408e-09 0)
(1.15722 -2.20123e-06 0)
(1.15721 3.10847e-08 0)
(1.15721 2.19812e-06 0)
(1.15722 -2.7874e-08 0)
(1.16015 -1.98563e-06 0)
(1.16015 6.33711e-08 0)
(1.16015 1.98268e-06 0)
(1.16016 -6.0488e-08 0)
(1.16289 -1.7477e-06 0)
(1.16288 8.87937e-08 0)
(1.16289 1.74502e-06 0)
(1.1629 -8.62521e-08 0)
(1.16539 -1.48843e-06 0)
(1.16538 1.05135e-07 0)
(1.16539 1.48606e-06 0)
(1.1654 -1.02952e-07 0)
(1.16759 -1.26207e-06 0)
(1.16759 1.16365e-07 0)
(1.16759 1.25992e-06 0)
(1.1676 -1.14523e-07 0)
(1.16945 -1.03397e-06 0)
(1.16944 1.17167e-07 0)
(1.16945 1.03206e-06 0)
(1.16945 -1.15626e-07 0)
(1.17089 -7.87236e-07 0)
(1.17088 1.07842e-07 0)
(1.17089 7.85697e-07 0)
(1.1709 -1.06494e-07 0)
(1.17184 -5.22956e-07 0)
(1.17184 9.27485e-08 0)
(1.17184 5.21842e-07 0)
(1.17185 -9.15495e-08 0)
(1.17224 -2.58211e-07 0)
(1.17223 8.39826e-08 0)
(1.17224 2.57334e-07 0)
(1.17225 -8.29811e-08 0)
(1.17201 -3.3766e-08 0)
(1.172 7.83812e-08 0)
(1.17201 3.32464e-08 0)
(1.17201 -7.76385e-08 0)
(1.17107 1.30164e-07 0)
(1.17107 4.73948e-08 0)
(1.17107 -1.30656e-07 0)
(1.17107 -4.72692e-08 0)
(1.16937 5.24367e-08 0)
(1.16937 3.6864e-08 0)
(1.16937 -5.17207e-08 0)
(1.16937 -3.63602e-08 0)
)
;

boundaryField
{
    inlet
    {
        type            cyclic;
    }
    outlet
    {
        type            cyclic;
    }
    fixedWalls-bottom
    {
        type            noSlip;
    }
    fixedWalls-top
    {
        type            symmetry;
    }
    frontAndBack
    {
        type            empty;
    }
}


// ************************************************************************* //
