/*--------------------------------*- C++ -*----------------------------------*\
  =========                 |
  \\      /  F ield         | OpenFOAM: The Open Source CFD Toolbox
   \\    /   O peration     | Website:  https://openfoam.org
    \\  /    A nd           | Version:  10
     \\/     M anipulation  |
\*---------------------------------------------------------------------------*/
FoamFile
{
    format      ascii;
    class       volScalarField;
    location    "1456";
    object      k;
}
// * * * * * * * * * * * * * * * * * * * * * * * * * * * * * * * * * * * * * //

dimensions      [0 2 -2 0 0 0 0];

internalField   nonuniform List<scalar> 
200
(
8.42156e-06
8.42259e-06
8.42264e-06
8.42249e-06
0.000252453
0.000252483
0.000252485
0.000252481
0.00162078
0.00162096
0.00162096
0.00162093
0.00388761
0.00388789
0.00388785
0.00388778
0.00560866
0.00560884
0.00560877
0.00560869
0.0067046
0.0067047
0.00670462
0.00670453
0.00738571
0.00738575
0.00738565
0.00738559
0.00780719
0.0078072
0.0078071
0.00780708
0.00806532
0.0080653
0.00806521
0.00806523
0.00821744
0.00821741
0.00821732
0.00821738
0.00829801
0.00829797
0.00829789
0.00829799
0.00832827
0.00832823
0.00832816
0.00832829
0.00832172
0.00832167
0.00832161
0.00832175
0.00828717
0.00828711
0.00828707
0.00828721
0.00823057
0.00823051
0.00823047
0.00823061
0.00815602
0.00815595
0.00815593
0.00815605
0.00806639
0.00806633
0.00806632
0.00806641
0.00796374
0.00796369
0.00796369
0.00796376
0.00784955
0.00784952
0.00784952
0.00784956
0.0077249
0.00772488
0.00772489
0.0077249
0.0075906
0.00759058
0.0075906
0.00759059
0.00744729
0.00744728
0.00744731
0.00744728
0.0072956
0.0072956
0.00729565
0.0072956
0.00713627
0.00713628
0.00713634
0.00713627
0.00697027
0.0069703
0.00697037
0.00697027
0.00679897
0.006799
0.00679908
0.00679896
0.00662403
0.00662405
0.00662413
0.00662402
0.00644716
0.00644718
0.00644724
0.00644717
0.00626942
0.00626944
0.0062695
0.00626942
0.00609084
0.00609086
0.00609093
0.00609081
0.00591159
0.00591161
0.00591168
0.00591152
0.00573222
0.00573224
0.00573231
0.00573212
0.0055533
0.00555336
0.00555341
0.00555319
0.00537549
0.0053756
0.00537561
0.0053754
0.0051995
0.00519966
0.00519964
0.00519944
0.00502612
0.00502629
0.00502626
0.00502607
0.00485617
0.00485634
0.00485631
0.00485613
0.00469056
0.00469072
0.00469069
0.00469052
0.00453024
0.00453038
0.00453036
0.00453021
0.00437624
0.00437637
0.00437635
0.00437623
0.00422967
0.00422977
0.00422976
0.00422966
0.00409167
0.00409172
0.00409175
0.00409167
0.00396345
0.00396347
0.00396351
0.00396344
0.00384626
0.00384627
0.00384631
0.00384625
0.0037414
0.00374141
0.00374145
0.0037414
0.00365023
0.00365024
0.00365027
0.00365023
0.00357415
0.00357417
0.0035742
0.00357415
0.00351465
0.00351469
0.00351469
0.00351465
0.00347327
0.00347334
0.00347332
0.00347327
0.00345169
0.00345177
0.00345175
0.00345169
)
;

boundaryField
{
    inlet
    {
        type            cyclic;
    }
    outlet
    {
        type            cyclic;
    }
    fixedWalls-bottom
    {
        type            kqRWallFunction;
        value           nonuniform List<scalar> 4(8.42156e-06 8.42259e-06 8.42264e-06 8.42249e-06);
    }
    fixedWalls-top
    {
        type            symmetry;
    }
    frontAndBack
    {
        type            empty;
    }
}


// ************************************************************************* //
