/*--------------------------------*- C++ -*----------------------------------*\
  =========                 |
  \\      /  F ield         | OpenFOAM: The Open Source CFD Toolbox
   \\    /   O peration     | Website:  https://openfoam.org
    \\  /    A nd           | Version:  10
     \\/     M anipulation  |
\*---------------------------------------------------------------------------*/
FoamFile
{
    format      ascii;
    class       volScalarField;
    location    "1456";
    object      nut;
}
// * * * * * * * * * * * * * * * * * * * * * * * * * * * * * * * * * * * * * //

dimensions      [0 2 -1 0 0 0 0];

internalField   nonuniform List<scalar> 
200
(
1.06658e-08
1.06671e-08
1.06672e-08
1.0667e-08
1.80522e-06
1.80545e-06
1.80546e-06
1.80543e-06
2.91634e-05
2.91679e-05
2.9168e-05
2.91675e-05
0.000118559
0.000118574
0.000118571
0.000118569
0.000242484
0.000242493
0.000242492
0.000242487
0.000387912
0.000387918
0.000387914
0.000387907
0.000550783
0.000550786
0.000550778
0.00055077
0.000726343
0.000726343
0.000726333
0.000726327
0.000910634
0.000910632
0.00091062
0.00091062
0.00110066
0.00110066
0.00110064
0.00110065
0.00129429
0.00129429
0.00129427
0.00129429
0.00149006
0.00149006
0.00149004
0.00149007
0.00168697
0.00168696
0.00168694
0.00168698
0.00188433
0.00188432
0.0018843
0.00188434
0.00208168
0.00208165
0.00208164
0.00208168
0.00227865
0.00227863
0.00227862
0.00227866
0.002475
0.00247498
0.00247497
0.00247501
0.00267053
0.00267051
0.00267051
0.00267053
0.00286512
0.00286511
0.00286511
0.00286512
0.00305885
0.00305884
0.00305885
0.00305886
0.00325218
0.00325219
0.00325221
0.00325219
0.00344628
0.00344631
0.00344634
0.00344629
0.00364345
0.00364349
0.0036435
0.00364342
0.00384749
0.00384751
0.00384746
0.00384742
0.00406377
0.00406371
0.00406355
0.00406372
0.00429827
0.00429807
0.00429782
0.00429849
0.00455463
0.00455436
0.00455416
0.00455541
0.00482776
0.00482754
0.0048276
0.00482849
0.00509238
0.00509165
0.0050921
0.00508901
0.00532183
0.00532068
0.00532105
0.0053174
0.00555016
0.00554873
0.00554888
0.00554472
0.00577688
0.00577501
0.00577495
0.00576998
0.00599879
0.00599983
0.00599662
0.00599317
0.00621873
0.00622006
0.00621622
0.0062131
0.00643524
0.00643671
0.00643257
0.0064296
0.006648
0.00664956
0.00664528
0.00664239
0.00685668
0.0068583
0.00685396
0.00685116
0.00706096
0.00706256
0.00705825
0.00705555
0.00726036
0.00726182
0.0072577
0.00725509
0.00745432
0.0074552
0.00745182
0.00744918
0.00764204
0.00764106
0.00764003
0.00763701
0.00782252
0.00782113
0.00782048
0.00781744
0.00799433
0.00799253
0.00799217
0.00798898
0.00815518
0.00815332
0.00815299
0.0081497
0.00830276
0.00830109
0.0083004
0.00829718
0.00843408
0.00843325
0.00843139
0.00842846
0.00854563
0.00854768
0.00854253
0.00854006
0.00863434
0.0086367
0.00863065
0.00862833
0.00869604
0.00869828
0.00869225
0.00868913
0.00872719
0.00872862
0.0087234
0.0087189
)
;

boundaryField
{
    inlet
    {
        type            cyclic;
    }
    outlet
    {
        type            cyclic;
    }
    fixedWalls-bottom
    {
        type            nutkWallFunction;
        Cmu             0.09;
        kappa           0.41;
        E               9.8;
        value           uniform 0;
    }
    fixedWalls-top
    {
        type            symmetry;
    }
    frontAndBack
    {
        type            empty;
    }
}


// ************************************************************************* //
