/*--------------------------------*- C++ -*----------------------------------*\
  =========                 |
  \\      /  F ield         | OpenFOAM: The Open Source CFD Toolbox
   \\    /   O peration     | Website:  https://openfoam.org
    \\  /    A nd           | Version:  10
     \\/     M anipulation  |
\*---------------------------------------------------------------------------*/
FoamFile
{
    format      ascii;
    class       volScalarField;
    location    "1456";
    object      omega;
}
// * * * * * * * * * * * * * * * * * * * * * * * * * * * * * * * * * * * * * //

dimensions      [0 0 -1 0 0 0 0];

internalField   nonuniform List<scalar> 
200
(
789.583
789.583
789.583
789.583
139.846
139.845
139.845
139.845
55.5757
55.5734
55.5732
55.5732
32.7906
32.7888
32.7891
32.7892
22.5158
22.5152
22.5156
22.5157
16.6712
16.6714
16.6718
16.6719
12.9639
12.9642
12.9645
12.9646
10.45
10.4503
10.4506
10.4506
8.65984
8.66019
8.66023
8.66011
7.33412
7.33441
7.33442
7.33415
6.3201
6.32024
6.32026
6.31983
5.52278
5.52282
5.52285
5.52231
4.88096
4.881
4.88097
4.88043
4.35401
4.35393
4.35397
4.35334
3.91355
3.91359
3.91354
3.91301
3.53997
3.54006
3.5399
3.53951
3.21881
3.21888
3.21876
3.21844
2.93945
2.93948
2.93941
2.93919
2.6939
2.6939
2.69384
2.69376
2.47602
2.47599
2.47598
2.47598
2.28099
2.28101
2.28101
2.2811
2.10512
2.10517
2.10513
2.10532
1.9454
1.94542
1.94538
1.94566
1.79948
1.79947
1.79944
1.79975
1.66559
1.66555
1.66552
1.66586
1.54251
1.54244
1.54239
1.54279
1.42941
1.42938
1.42931
1.42982
1.32582
1.32589
1.3258
1.32644
1.23114
1.23132
1.23122
1.23195
1.1445
1.14475
1.14469
1.14545
1.06512
1.0654
1.06538
1.06615
0.99227
0.992594
0.992617
0.993438
0.925736
0.925585
0.92609
0.926587
0.864402
0.864237
0.864772
0.865172
0.807973
0.807813
0.808329
0.808671
0.756036
0.755884
0.756366
0.756665
0.708239
0.708097
0.70854
0.708804
0.664295
0.664166
0.664568
0.664799
0.623969
0.623864
0.624213
0.624418
0.587075
0.587023
0.587286
0.587477
0.553474
0.553558
0.553631
0.553837
0.523063
0.523163
0.523209
0.523402
0.495782
0.495898
0.495924
0.496114
0.471634
0.471743
0.471767
0.47195
0.450621
0.450712
0.450755
0.450924
0.432795
0.432839
0.432938
0.433083
0.418243
0.418146
0.418401
0.418516
0.407054
0.406948
0.407234
0.407338
0.399408
0.399313
0.399589
0.399726
0.39551
0.395454
0.395689
0.395887
)
;

boundaryField
{
    inlet
    {
        type            cyclic;
    }
    outlet
    {
        type            cyclic;
    }
    fixedWalls-bottom
    {
        beta1           0.075;
        blended         0;
        type            omegaWallFunction;
        value           nonuniform List<scalar> 4(789.583 789.583 789.583 789.583);
    }
    fixedWalls-top
    {
        type            symmetry;
    }
    frontAndBack
    {
        type            empty;
    }
}


// ************************************************************************* //
