/*--------------------------------*- C++ -*----------------------------------*\
  =========                 |
  \\      /  F ield         | OpenFOAM: The Open Source CFD Toolbox
   \\    /   O peration     | Website:  https://openfoam.org
    \\  /    A nd           | Version:  10
     \\/     M anipulation  |
\*---------------------------------------------------------------------------*/
FoamFile
{
    format      ascii;
    class       volScalarField;
    location    "1456";
    object      p;
}
// * * * * * * * * * * * * * * * * * * * * * * * * * * * * * * * * * * * * * //

dimensions      [0 2 -2 0 0 0 0];

internalField   nonuniform List<scalar> 
200
(
-1.30841e-13
3.84822e-07
6.21195e-07
2.36324e-07
7.51719e-11
3.84517e-07
6.21119e-07
2.36629e-07
2.37817e-10
3.84837e-07
6.20957e-07
2.36309e-07
8.4653e-10
3.86533e-07
6.20348e-07
2.34613e-07
1.99179e-09
3.88576e-07
6.19203e-07
2.3257e-07
3.47855e-09
3.898e-07
6.17716e-07
2.31346e-07
5.23958e-09
3.90372e-07
6.15955e-07
2.30774e-07
7.00577e-09
3.90605e-07
6.14188e-07
2.30541e-07
8.46657e-09
3.90703e-07
6.12727e-07
2.30444e-07
9.42827e-09
3.90766e-07
6.11766e-07
2.3038e-07
9.80858e-09
3.90844e-07
6.11385e-07
2.30303e-07
9.59507e-09
3.90955e-07
6.11599e-07
2.30192e-07
8.84095e-09
3.91103e-07
6.12353e-07
2.30044e-07
7.63062e-09
3.91308e-07
6.13563e-07
2.29839e-07
6.0399e-09
3.91625e-07
6.15153e-07
2.29522e-07
4.13628e-09
3.92147e-07
6.17057e-07
2.29e-07
1.99616e-09
3.92984e-07
6.19197e-07
2.28163e-07
-3.28469e-10
3.9422e-07
6.21522e-07
2.26927e-07
-2.86596e-09
3.95928e-07
6.24059e-07
2.2522e-07
-5.70995e-09
3.9821e-07
6.26903e-07
2.22937e-07
-8.88049e-09
4.01259e-07
6.30073e-07
2.19888e-07
-1.21276e-08
4.05267e-07
6.3332e-07
2.15881e-07
-1.49136e-08
4.10012e-07
6.36106e-07
2.11136e-07
-1.70545e-08
4.14283e-07
6.38247e-07
2.06865e-07
-2.04132e-08
4.15912e-07
6.41606e-07
2.05236e-07
-3.04995e-08
4.13368e-07
6.51692e-07
2.07781e-07
-5.30913e-08
4.0845e-07
6.74283e-07
2.12702e-07
-8.00199e-08
4.06089e-07
7.01211e-07
2.15059e-07
-7.86882e-08
4.06966e-07
6.99878e-07
2.14171e-07
-4.49974e-08
4.04865e-07
6.66185e-07
2.16267e-07
-1.89725e-09
3.95516e-07
6.23083e-07
2.25616e-07
4.91787e-08
3.79015e-07
5.72007e-07
2.42119e-07
1.13718e-07
3.58342e-07
5.07471e-07
2.62795e-07
1.86672e-07
3.35975e-07
4.34521e-07
2.85168e-07
2.58044e-07
3.12668e-07
3.63153e-07
3.08482e-07
3.25244e-07
2.9015e-07
2.95956e-07
3.31005e-07
3.87814e-07
2.69364e-07
2.33387e-07
3.51795e-07
4.45425e-07
2.50504e-07
1.75777e-07
3.70658e-07
4.97193e-07
2.33665e-07
1.2401e-07
3.87496e-07
5.40059e-07
2.1949e-07
8.11441e-08
4.01668e-07
5.68311e-07
2.09028e-07
5.28903e-08
4.12125e-07
5.84637e-07
2.01284e-07
3.65615e-08
4.19865e-07
5.96979e-07
1.94239e-07
2.42186e-08
4.26907e-07
6.07704e-07
1.87606e-07
1.34934e-08
4.33538e-07
6.17686e-07
1.81336e-07
3.51059e-09
4.39807e-07
6.28885e-07
1.74994e-07
-7.68774e-09
4.46147e-07
6.44572e-07
1.68695e-07
-2.3373e-08
4.52446e-07
6.62007e-07
1.62645e-07
-4.08056e-08
4.58497e-07
6.75653e-07
1.57653e-07
-5.44488e-08
4.6349e-07
6.84434e-07
1.5448e-07
-6.32289e-08
4.66665e-07
)
;

boundaryField
{
    inlet
    {
        type            cyclic;
    }
    outlet
    {
        type            cyclic;
    }
    fixedWalls-bottom
    {
        type            zeroGradient;
    }
    fixedWalls-top
    {
        type            symmetry;
    }
    frontAndBack
    {
        type            empty;
    }
}


// ************************************************************************* //
