/*--------------------------------*- C++ -*----------------------------------*\
  =========                 |
  \\      /  F ield         | OpenFOAM: The Open Source CFD Toolbox
   \\    /   O peration     | Website:  https://openfoam.org
    \\  /    A nd           | Version:  10
     \\/     M anipulation  |
\*---------------------------------------------------------------------------*/
FoamFile
{
    format      ascii;
    class       surfaceScalarField;
    location    "1456";
    object      phi;
}
// * * * * * * * * * * * * * * * * * * * * * * * * * * * * * * * * * * * * * //

dimensions      [0 3 -1 0 0 0 0];

internalField   nonuniform List<scalar> 
346
(
0.00135538
4.73924e-09
0.00135538
-7.96305e-09
0.00135539
-4.72795e-09
7.96273e-09
0.00418483
1.23113e-08
0.00418486
-3.04539e-08
0.00418486
-1.23029e-08
3.04526e-08
0.00704232
1.49531e-08
0.00704234
-5.52585e-08
0.00704235
-1.49463e-08
5.5257e-08
0.00952449
1.24766e-08
0.00952449
-6.15509e-08
0.00952449
-1.24711e-08
6.15489e-08
0.0115326
7.31437e-09
0.0115326
-5.50653e-08
0.0115326
-7.30965e-09
5.50634e-08
0.013213
2.47308e-09
0.013213
-4.56147e-08
0.013213
-2.46898e-09
4.56126e-08
0.0146834
6.47986e-10
0.0146834
-3.57547e-08
0.0146834
-6.44321e-10
3.57527e-08
0.0160181
2.17691e-09
0.0160181
-2.60667e-08
0.0160181
-2.17358e-09
2.60646e-08
0.0172653
6.16461e-09
0.0172653
-1.66103e-08
0.0172653
-6.1616e-09
1.66084e-08
0.0184568
1.15755e-08
0.0184568
-7.46013e-09
0.0184568
-1.15727e-08
7.45828e-09
0.0196142
1.75918e-08
0.0196142
1.23043e-09
0.0196142
-1.75892e-08
-1.23216e-09
0.0207525
2.36709e-08
0.0207525
9.26145e-09
0.0207525
-2.36686e-08
-9.26311e-09
0.0218828
2.95752e-08
0.0218828
1.64019e-08
0.0218828
-2.95731e-08
-1.64034e-08
0.0230131
3.52988e-08
0.0230131
2.24773e-08
0.0230131
-3.52967e-08
-2.24788e-08
0.0241497
4.09144e-08
0.0241497
2.74143e-08
0.0241497
-4.09125e-08
-2.74156e-08
0.0252975
4.64997e-08
0.0252975
3.13058e-08
0.0252975
-4.6498e-08
-3.1307e-08
0.0264606
5.21512e-08
0.0264606
3.43973e-08
0.0264606
-5.21497e-08
-3.43984e-08
0.0276423
5.79587e-08
0.0276423
3.6997e-08
0.0276424
-5.79573e-08
-3.6998e-08
0.0288455
6.38799e-08
0.0288455
3.94532e-08
0.0288455
-6.38787e-08
-3.9454e-08
0.0300726
6.96933e-08
0.0300726
4.22305e-08
0.0300726
-6.96922e-08
-4.22312e-08
0.0313256
7.52474e-08
0.0313256
4.61124e-08
0.0313256
-7.52465e-08
-4.61129e-08
0.0326065
8.10867e-08
0.0326065
5.22027e-08
0.0326065
-8.1086e-08
-5.22031e-08
0.0339167
8.90577e-08
0.0339167
6.10251e-08
0.0339167
-8.90571e-08
-6.10253e-08
0.0352572
1.01669e-07
0.0352572
7.03508e-08
0.0352572
-1.01669e-07
-7.03509e-08
0.0366287
1.18416e-07
0.0366287
7.29798e-08
0.0366288
-1.18416e-07
-7.29797e-08
0.0380315
1.29054e-07
0.0380315
5.78363e-08
0.0380315
-1.29054e-07
-5.7836e-08
0.0394655
1.09977e-07
0.0394655
1.77895e-08
0.0394655
-1.09977e-07
-1.7789e-08
0.0409309
3.96433e-08
0.0409309
-3.94139e-08
0.0409309
-3.96438e-08
3.94147e-08
0.0424289
-4.62834e-08
0.042429
-9.69715e-08
0.0424289
4.62825e-08
9.69726e-08
0.0439624
-1.12337e-07
0.0439624
-1.45966e-07
0.0439623
1.12335e-07
1.45968e-07
0.0455333
-1.65966e-07
0.0455333
-1.85106e-07
0.0455333
1.65964e-07
1.85108e-07
0.0471428
-2.08808e-07
0.0471428
-2.15329e-07
0.0471428
2.08805e-07
2.15332e-07
0.0487919
-2.31022e-07
0.0487919
-2.34776e-07
0.0487919
2.31018e-07
2.3478e-07
0.0504815
-2.29212e-07
0.0504815
-2.41156e-07
0.0504815
2.29208e-07
2.4116e-07
0.0522124
-2.12173e-07
0.0522124
-2.35859e-07
0.0522124
2.12168e-07
2.35863e-07
0.0539855
-1.86387e-07
0.0539855
-2.20274e-07
0.0539855
1.86382e-07
2.20278e-07
0.0558013
-1.55737e-07
0.0558013
-1.96177e-07
0.0558013
1.55733e-07
1.96182e-07
0.0576605
-1.21667e-07
0.0576604
-1.65927e-07
0.0576605
1.21662e-07
1.65932e-07
0.0595634
-8.40943e-08
0.0595633
-1.32629e-07
0.0595634
8.40898e-08
1.32634e-07
0.0615103
-4.43087e-08
0.0615103
-9.99438e-08
0.0615104
4.43043e-08
9.99482e-08
0.0635016
-1.31955e-08
0.0635015
-7.02972e-08
0.0635016
1.31912e-08
7.03016e-08
0.065537
2.37378e-09
0.065537
-4.62513e-08
0.065537
-2.37797e-09
4.62555e-08
0.0676166
6.5356e-09
0.0676166
-3.04052e-08
0.0676166
-6.53979e-09
3.04094e-08
0.0697398
2.7754e-09
0.0697398
-2.23768e-08
0.0697398
-2.77949e-09
2.23809e-08
0.0719063
-6.62211e-09
0.0719063
-1.99273e-08
0.0719062
6.61812e-09
1.99313e-08
0.0741149
-1.90978e-08
0.0741149
-2.02798e-08
0.0741149
1.90942e-08
2.02835e-08
0.0763647
-2.62887e-08
0.0763647
-1.97454e-08
0.0763647
2.62856e-08
1.97485e-08
0.0786538
-2.3951e-08
0.0786538
-1.62127e-08
0.0786538
2.39489e-08
1.62148e-08
0.0809803
-1.46682e-08
0.0809803
-9.2258e-09
0.0809803
1.46673e-08
9.2267e-09
0.0833411
0.0833411
0.0833411
)
;

boundaryField
{
    inlet
    {
        type            cyclic;
        value           nonuniform List<scalar> 
50
(
-0.0833411
-0.0809803
-0.0786539
-0.0763647
-0.0741149
-0.0719063
-0.0697398
-0.0676166
-0.065537
-0.0635016
-0.0615104
-0.0595634
-0.0576605
-0.0558014
-0.0539855
-0.0522125
-0.0504815
-0.0487919
-0.0471428
-0.0455332
-0.0439623
-0.0424288
-0.0409308
-0.0394655
-0.0380315
-0.0366288
-0.0352572
-0.0339167
-0.0326065
-0.0313256
-0.0300726
-0.0288455
-0.0276424
-0.0264606
-0.0252975
-0.0241497
-0.0230131
-0.0218828
-0.0207525
-0.0196142
-0.0184568
-0.0172653
-0.0160181
-0.0146834
-0.013213
-0.0115326
-0.00952448
-0.00704232
-0.00418484
-0.00135538
)
;
    }
    outlet
    {
        type            cyclic;
        value           nonuniform List<scalar> 
50
(
0.0833411
0.0809803
0.0786539
0.0763647
0.0741149
0.0719063
0.0697398
0.0676166
0.065537
0.0635016
0.0615104
0.0595634
0.0576605
0.0558014
0.0539855
0.0522125
0.0504815
0.0487919
0.0471428
0.0455332
0.0439623
0.0424288
0.0409308
0.0394655
0.0380315
0.0366288
0.0352572
0.0339167
0.0326065
0.0313256
0.0300726
0.0288455
0.0276424
0.0264606
0.0252975
0.0241497
0.0230131
0.0218828
0.0207525
0.0196142
0.0184568
0.0172653
0.0160181
0.0146834
0.013213
0.0115326
0.00952448
0.00704232
0.00418484
0.00135538
)
;
    }
    fixedWalls-bottom
    {
        type            calculated;
        value           uniform 0;
    }
    fixedWalls-top
    {
        type            symmetry;
        value           uniform 0;
    }
    frontAndBack
    {
        type            empty;
        value           nonuniform List<scalar> 0();
    }
}


// ************************************************************************* //
