/*--------------------------------*- C++ -*----------------------------------*\
  =========                 |
  \\      /  F ield         | OpenFOAM: The Open Source CFD Toolbox
   \\    /   O peration     | Website:  https://openfoam.org
    \\  /    A nd           | Version:  10
     \\/     M anipulation  |
\*---------------------------------------------------------------------------*/
FoamFile
{
    format      ascii;
    class       volSymmTensorField;
    location    "1456";
    object      R;
}
// * * * * * * * * * * * * * * * * * * * * * * * * * * * * * * * * * * * * * //

dimensions      [0 2 -2 0 0 0 0];

internalField   nonuniform List<symmTensor> 
200
(
(5.61437e-06 -1.69179e-07 -0 5.61437e-06 -0 5.61437e-06)
(5.61506e-06 -1.69201e-07 -0 5.61506e-06 -0 5.61506e-06)
(5.61509e-06 -1.69203e-07 -0 5.61509e-06 -0 5.61509e-06)
(5.61499e-06 -1.692e-07 -0 5.61499e-06 -0 5.61499e-06)
(0.000168302 -2.74023e-05 -0 0.000168302 -0 0.000168302)
(0.000168322 -2.74059e-05 -0 0.000168322 -0 0.000168322)
(0.000168323 -2.7406e-05 -0 0.000168323 -0 0.000168323)
(0.000168321 -2.74056e-05 -0 0.000168321 -0 0.000168321)
(0.00108052 -0.000380578 -0 0.00108052 -0 0.00108052)
(0.00108064 -0.000380634 -0 0.00108064 -0 0.00108064)
(0.00108064 -0.000380635 -0 0.00108064 -0 0.00108064)
(0.00108062 -0.000380628 -0 0.00108062 -0 0.00108062)
(0.00259174 -0.00117139 -0 0.00259174 -0 0.00259174)
(0.00259193 -0.00117152 -0 0.00259193 -0 0.00259193)
(0.0025919 -0.00117149 -0 0.0025919 -0 0.0025919)
(0.00259185 -0.00117147 -0 0.00259185 -0 0.00259185)
(0.00373911 -0.0017387 -0 0.00373911 -0 0.00373911)
(0.00373923 -0.00173876 -0 0.00373923 -0 0.00373923)
(0.00373918 -0.00173875 -0 0.00373918 -0 0.00373918)
(0.00373913 -0.00173871 -0 0.00373913 -0 0.00373913)
(0.00446973 -0.00207884 -0 0.00446973 -0 0.00446973)
(0.0044698 -0.00207887 -0 0.0044698 -0 0.0044698)
(0.00446975 -0.00207883 -0 0.00446975 -0 0.00446975)
(0.00446969 -0.00207883 -0 0.00446969 -0 0.00446969)
(0.00492381 -0.00228973 -0 0.00492381 -0 0.00492381)
(0.00492383 -0.00228975 -0 0.00492383 -0 0.00492383)
(0.00492377 -0.00228969 -0 0.00492377 -0 0.00492377)
(0.00492373 -0.00228971 -0 0.00492373 -0 0.00492373)
(0.00520479 -0.00242028 -0 0.00520479 -0 0.00520479)
(0.0052048 -0.00242025 -0 0.0052048 -0 0.0052048)
(0.00520473 -0.00242024 -0 0.00520473 -0 0.00520473)
(0.00520472 -0.00242019 -0 0.00520472 -0 0.00520472)
(0.00537688 -0.00250026 -0 0.00537688 -0 0.00537688)
(0.00537687 -0.00250021 -0 0.00537687 -0 0.00537687)
(0.00537681 -0.00250022 -0 0.00537681 -0 0.00537681)
(0.00537682 -0.00250022 -0 0.00537682 -0 0.00537682)
(0.0054783 -0.00254738 -0 0.00547829 -0 0.00547829)
(0.00547828 -0.00254742 -0 0.00547827 -0 0.00547827)
(0.00547821 -0.00254733 -0 0.00547821 -0 0.00547821)
(0.00547825 -0.0025474 -0 0.00547826 -0 0.00547825)
(0.00553201 -0.00257235 -0 0.00553201 -0 0.00553201)
(0.00553198 -0.0025724 -0 0.00553198 -0 0.00553198)
(0.00553193 -0.00257236 -0 0.00553193 -0 0.00553193)
(0.00553199 -0.00257235 -0 0.005532 -0 0.00553199)
(0.00555218 -0.00258177 -0 0.00555218 -0 0.00555218)
(0.00555215 -0.00258172 -0 0.00555215 -0 0.00555215)
(0.00555211 -0.00258174 -0 0.00555211 -0 0.00555211)
(0.00555219 -0.00258179 -0 0.00555219 -0 0.00555219)
(0.00554782 -0.00257977 -0 0.00554781 -0 0.00554781)
(0.00554778 -0.00257969 -0 0.00554778 -0 0.00554778)
(0.00554774 -0.00257966 -0 0.00554774 -0 0.00554774)
(0.00554783 -0.00257979 -0 0.00554784 -0 0.00554783)
(0.00552478 -0.00256903 -0 0.00552478 -0 0.00552478)
(0.00552474 -0.00256902 -0 0.00552474 -0 0.00552474)
(0.00552471 -0.00256899 -0 0.00552472 -0 0.00552471)
(0.0055248 -0.00256905 -0 0.00552481 -0 0.00552481)
(0.00548705 -0.00255149 -0 0.00548704 -0 0.00548705)
(0.00548701 -0.00255145 -0 0.005487 -0 0.00548701)
(0.00548698 -0.00255144 -0 0.00548698 -0 0.00548698)
(0.00548707 -0.00255149 -0 0.00548708 -0 0.00548707)
(0.00543735 -0.00252832 -0 0.00543734 -0 0.00543735)
(0.0054373 -0.00252838 -0 0.0054373 -0 0.0054373)
(0.00543728 -0.00252837 -0 0.00543729 -0 0.00543729)
(0.00543736 -0.00252833 -0 0.00543737 -0 0.00543737)
(0.00537759 -0.00250053 -0 0.00537759 -0 0.00537759)
(0.00537755 -0.00250059 -0 0.00537755 -0 0.00537755)
(0.00537755 -0.00250058 -0 0.00537755 -0 0.00537755)
(0.00537761 -0.00250054 -0 0.00537761 -0 0.00537761)
(0.00530916 -0.00246882 -0 0.00530916 -0 0.00530916)
(0.00530913 -0.00246872 -0 0.00530913 -0 0.00530913)
(0.00530913 -0.00246872 -0 0.00530913 -0 0.00530913)
(0.00530917 -0.00246882 -0 0.00530917 -0 0.00530917)
(0.00523304 -0.00243342 -0 0.00523303 -0 0.00523303)
(0.00523302 -0.00243332 -0 0.00523301 -0 0.00523301)
(0.00523301 -0.00243341 -0 0.00523302 -0 0.00523301)
(0.00523304 -0.00243342 -0 0.00523304 -0 0.00523304)
(0.00514994 -0.00239466 -0 0.00514993 -0 0.00514993)
(0.00514992 -0.00239474 -0 0.00514992 -0 0.00514992)
(0.00514992 -0.00239475 -0 0.00514993 -0 0.00514993)
(0.00514993 -0.00239466 -0 0.00514993 -0 0.00514993)
(0.0050604 -0.00235302 -0 0.0050604 -0 0.0050604)
(0.00506039 -0.00235313 -0 0.00506039 -0 0.00506039)
(0.0050604 -0.00235304 -0 0.0050604 -0 0.0050604)
(0.00506039 -0.00235303 -0 0.00506039 -0 0.00506039)
(0.00496486 -0.00230871 -0 0.00496486 -0 0.00496486)
(0.00496485 -0.00230863 -0 0.00496485 -0 0.00496485)
(0.00496487 -0.00230865 -0 0.00496487 -0 0.00496487)
(0.00496485 -0.00230872 -0 0.00496486 -0 0.00496485)
(0.00486374 -0.00226167 -0 0.00486373 -0 0.00486373)
(0.00486374 -0.00226159 -0 0.00486373 -0 0.00486373)
(0.00486376 -0.00226159 -0 0.00486377 -0 0.00486377)
(0.00486373 -0.00226165 -0 0.00486374 -0 0.00486373)
(0.00475752 -0.00221231 -0 0.00475751 -0 0.00475751)
(0.00475753 -0.00221243 -0 0.00475751 -0 0.00475752)
(0.00475755 -0.0022124 -0 0.00475757 -0 0.00475756)
(0.00475751 -0.00221227 -0 0.00475752 -0 0.00475751)
(0.00464685 -0.00216099 -0 0.00464684 -0 0.00464685)
(0.00464687 -0.00216107 -0 0.00464687 -0 0.00464687)
(0.00464691 -0.00216098 -0 0.00464692 -0 0.00464691)
(0.00464685 -0.00216096 -0 0.00464685 -0 0.00464685)
(0.00453265 -0.00210763 -0 0.00453265 -0 0.00453265)
(0.00453266 -0.00210753 -0 0.00453267 -0 0.00453266)
(0.00453272 -0.00210741 -0 0.00453272 -0 0.00453272)
(0.00453264 -0.00210774 -0 0.00453263 -0 0.00453264)
(0.00441602 -0.00205374 -0 0.00441603 -0 0.00441602)
(0.00441603 -0.00205362 -0 0.00441605 -0 0.00441603)
(0.00441609 -0.00205353 -0 0.00441608 -0 0.00441609)
(0.00441602 -0.00205292 -0 0.004416 -0 0.00441602)
(0.00429803 -0.00199896 -0 0.00429816 -0 0.00429813)
(0.00429811 -0.00199887 -0 0.00429814 -0 0.00429811)
(0.00429823 -0.00199889 -0 0.00429811 -0 0.00429814)
(0.00429812 -0.00199802 -0 0.0042981 -0 0.00429812)
(0.00417953 -0.00193946 -0 0.00417967 -0 0.00417963)
(0.00417962 -0.00194042 -0 0.00417965 -0 0.00417962)
(0.00417975 -0.00194059 -0 0.00417961 -0 0.00417965)
(0.00417962 -0.00193941 -0 0.00417959 -0 0.00417962)
(0.00406048 -0.00187356 -0 0.00406062 -0 0.00406058)
(0.00406049 -0.0018732 -0 0.00406063 -0 0.0040606)
(0.0040607 -0.00187333 -0 0.00406056 -0 0.0040606)
(0.00406062 -0.00187329 -0 0.00406049 -0 0.00406051)
(0.00394105 -0.00180921 -0 0.00394108 -0 0.00394105)
(0.00394107 -0.00180744 -0 0.00394109 -0 0.00394107)
(0.00394113 -0.00180749 -0 0.0039411 -0 0.00394113)
(0.00394102 -0.00180743 -0 0.003941 -0 0.00394102)
(0.00382147 -0.00174057 -0 0.00382149 -0 0.00382147)
(0.00382149 -0.00174001 -0 0.0038215 -0 0.00382149)
(0.00382155 -0.00173999 -0 0.00382153 -0 0.00382155)
(0.00382142 -0.00173849 -0 0.0038214 -0 0.00382142)
(0.0037022 -0.00167007 -0 0.00370221 -0 0.0037022)
(0.00370224 -0.00167037 -0 0.00370225 -0 0.00370224)
(0.00370228 -0.00166948 -0 0.00370227 -0 0.00370228)
(0.00370213 -0.00166851 -0 0.00370212 -0 0.00370213)
(0.00358366 -0.00159809 -0 0.00358366 -0 0.00358366)
(0.00358373 -0.00159844 -0 0.00358374 -0 0.00358373)
(0.00358374 -0.00159615 -0 0.00358374 -0 0.00358374)
(0.0035836 -0.00159665 -0 0.0035836 -0 0.0035836)
(0.00346634 -0.00152218 -0 0.00346633 -0 0.00346634)
(0.00346653 -0.00152253 -0 0.0034664 -0 0.0034664)
(0.00346642 -0.00152152 -0 0.00346643 -0 0.00346642)
(0.00346621 -0.00152084 -0 0.00346634 -0 0.00346634)
(0.00335075 -0.00144285 -0 0.00335074 -0 0.00335075)
(0.00335086 -0.0014432 -0 0.00335085 -0 0.00335086)
(0.00335084 -0.00144363 -0 0.00335085 -0 0.00335084)
(0.00335071 -0.00144164 -0 0.00335072 -0 0.00335071)
(0.00323745 -0.00136327 -0 0.00323744 -0 0.00323745)
(0.00323756 -0.0013636 -0 0.00323755 -0 0.00323756)
(0.00323753 -0.00136274 -0 0.00323755 -0 0.00323753)
(0.00323742 -0.00136218 -0 0.00323743 -0 0.00323742)
(0.00312705 -0.00128136 -0 0.00312703 -0 0.00312705)
(0.00312715 -0.00128032 -0 0.00312714 -0 0.00312715)
(0.00312712 -0.00127954 -0 0.00312714 -0 0.00312712)
(0.00312701 -0.00128038 -0 0.00312702 -0 0.00312701)
(0.00302026 -0.00119473 -0 0.0030201 -0 0.00302012)
(0.00302036 -0.00119361 -0 0.00302019 -0 0.00302021)
(0.00302014 -0.00119425 -0 0.0030203 -0 0.00302028)
(0.00302004 -0.00119386 -0 0.0030202 -0 0.00302018)
(0.0029176 -0.00110521 -0 0.00291743 -0 0.00291745)
(0.00291759 -0.00110666 -0 0.00291757 -0 0.00291759)
(0.00291746 -0.0011062 -0 0.00291763 -0 0.00291761)
(0.00291748 -0.00110444 -0 0.0029175 -0 0.00291748)
(0.00281979 -0.00101447 -0 0.00281977 -0 0.00281979)
(0.00281985 -0.0010157 -0 0.00281984 -0 0.00281985)
(0.00281983 -0.00101421 -0 0.00281985 -0 0.00281983)
(0.00281977 -0.00101381 -0 0.00281978 -0 0.00281977)
(0.00272778 -0.000921659 -0 0.00272777 -0 0.00272778)
(0.00272782 -0.000921496 -0 0.00272781 -0 0.00272782)
(0.00272783 -0.00092142 -0 0.00272784 -0 0.00272783)
(0.00272778 -0.000921061 -0 0.00272779 -0 0.00272778)
(0.0026423 -0.000824411 -0 0.0026423 -0 0.0026423)
(0.00264232 -0.000824226 -0 0.00264231 -0 0.00264232)
(0.00264234 -0.00082419 -0 0.00264234 -0 0.00264234)
(0.00264229 -0.00082386 -0 0.0026423 -0 0.00264229)
(0.00256417 -0.000724461 -0 0.00256417 -0 0.00256417)
(0.00256418 -0.000725588 -0 0.00256418 -0 0.00256418)
(0.00256421 -0.000724267 -0 0.00256421 -0 0.00256421)
(0.00256417 -0.000723975 -0 0.00256417 -0 0.00256417)
(0.00249415 -0.000622282 -0 0.00249433 -0 0.00249432)
(0.00249427 -0.000622194 -0 0.00249427 -0 0.00249427)
(0.00249441 -0.000622106 -0 0.00249424 -0 0.00249425)
(0.00249427 -0.000621864 -0 0.00249427 -0 0.00249427)
(0.00243348 -0.000517136 -0 0.00243349 -0 0.00243348)
(0.00243349 -0.000515786 -0 0.00243349 -0 0.00243349)
(0.00243352 -0.000516972 -0 0.00243351 -0 0.00243352)
(0.00243349 -0.000516792 -0 0.00243349 -0 0.00243349)
(0.00238277 -0.000407175 -0 0.00238277 -0 0.00238277)
(0.00238278 -0.000407274 -0 0.00238278 -0 0.00238278)
(0.0023828 -0.000407028 -0 0.0023828 -0 0.0023828)
(0.00238277 -0.00040691 -0 0.00238277 -0 0.00238277)
(0.0023431 -0.000294567 -0 0.0023431 -0 0.0023431)
(0.00234313 -0.000294649 -0 0.00234313 -0 0.00234313)
(0.00234313 -0.000294442 -0 0.00234313 -0 0.00234313)
(0.0023431 -0.000294362 -0 0.0023431 -0 0.0023431)
(0.00231551 -0.000179228 -0 0.00231551 -0 0.00231551)
(0.00231556 -0.000179275 -0 0.00231556 -0 0.00231556)
(0.00231555 -0.00017915 -0 0.00231555 -0 0.00231555)
(0.00231551 -0.000179085 -0 0.00231552 -0 0.00231551)
(0.00230113 -6.00433e-05 -0 0.00230112 -0 0.00230113)
(0.00230118 -6.00533e-05 -0 0.00230118 -0 0.00230118)
(0.00230116 -6.00174e-05 -0 0.00230117 -0 0.00230116)
(0.00230113 -5.99862e-05 -0 0.00230113 -0 0.00230113)
)
;

boundaryField
{
    inlet
    {
        type            cyclic;
    }
    outlet
    {
        type            cyclic;
    }
    fixedWalls-bottom
    {
        type            kqRWallFunction;
        value           nonuniform List<symmTensor> 4((5.61437e-06 -0 -0 5.61437e-06 -0 5.61437e-06) (5.61506e-06 -0 -0 5.61506e-06 -0 5.61506e-06) (5.61509e-06 -0 -0 5.61509e-06 -0 5.61509e-06) (5.61499e-06 -0 -0 5.61499e-06 -0 5.61499e-06));
    }
    fixedWalls-top
    {
        type            symmetry;
    }
    frontAndBack
    {
        type            empty;
    }
}


// ************************************************************************* //
