/*--------------------------------*- C++ -*----------------------------------*\
  =========                 |
  \\      /  F ield         | OpenFOAM: The Open Source CFD Toolbox
   \\    /   O peration     | Website:  https://openfoam.org
    \\  /    A nd           | Version:  10
     \\/     M anipulation  |
\*---------------------------------------------------------------------------*/
FoamFile
{
    format      ascii;
    class       volVectorField;
    location    "1456";
    object      U;
}
// * * * * * * * * * * * * * * * * * * * * * * * * * * * * * * * * * * * * * //

dimensions      [0 1 -1 0 0 0 0];

internalField   nonuniform List<vector> 
200
(
(0.0735595 1.2758e-09 0)
(0.07356 -2.61892e-09 0)
(0.0735604 -1.26924e-09 0)
(0.0735603 2.6185e-09 0)
(0.220785 8.0449e-09 0)
(0.220787 -2.10871e-08 0)
(0.220788 -8.0345e-09 0)
(0.220787 2.10866e-08 0)
(0.361178 1.41576e-08 0)
(0.36118 -4.45837e-08 0)
(0.36118 -1.41493e-08 0)
(0.36118 4.45823e-08 0)
(0.474855 1.61702e-08 0)
(0.474855 -5.74058e-08 0)
(0.474856 -1.61643e-08 0)
(0.474855 5.74039e-08 0)
(0.558933 1.0406e-08 0)
(0.558933 -6.01319e-08 0)
(0.558933 -1.04011e-08 0)
(0.558932 6.013e-08 0)
(0.622513 4.7311e-09 0)
(0.622513 -5.14501e-08 0)
(0.622513 -4.72678e-09 0)
(0.622512 5.14481e-08 0)
(0.672488 1.11743e-09 0)
(0.672488 -4.10725e-08 0)
(0.672487 -1.11357e-09 0)
(0.672488 4.10705e-08 0)
(0.713152 8.95901e-10 0)
(0.713152 -3.09918e-08 0)
(0.713151 -8.92419e-10 0)
(0.713152 3.09898e-08 0)
(0.747238 3.7418e-09 0)
(0.747237 -2.12784e-08 0)
(0.747237 -3.73864e-09 0)
(0.747237 2.12764e-08 0)
(0.776523 8.61908e-09 0)
(0.776522 -1.19093e-08 0)
(0.776522 -8.61618e-09 0)
(0.776523 1.19074e-08 0)
(0.802197 1.4463e-08 0)
(0.802197 -2.91381e-09 0)
(0.802196 -1.44603e-08 0)
(0.802197 2.91202e-09 0)
(0.825078 2.05861e-08 0)
(0.825078 5.49681e-09 0)
(0.825078 -2.05836e-08 0)
(0.825078 -5.49851e-09 0)
(0.845746 2.66174e-08 0)
(0.845745 1.31113e-08 0)
(0.845745 -2.66151e-08 0)
(0.845746 -1.31129e-08 0)
(0.86462 3.24428e-08 0)
(0.864619 1.97264e-08 0)
(0.864619 -3.24407e-08 0)
(0.86462 -1.97278e-08 0)
(0.882013 3.80994e-08 0)
(0.882012 2.52055e-08 0)
(0.882012 -3.80974e-08 0)
(0.882013 -2.52069e-08 0)
(0.898162 4.36837e-08 0)
(0.898161 2.95854e-08 0)
(0.898161 -4.36819e-08 0)
(0.898162 -2.95867e-08 0)
(0.91325 4.93148e-08 0)
(0.91325 3.30178e-08 0)
(0.91325 -4.93132e-08 0)
(0.91325 -3.3019e-08 0)
(0.927422 5.50847e-08 0)
(0.927422 3.57811e-08 0)
(0.927422 -5.50832e-08 0)
(0.927422 -3.57821e-08 0)
(0.940793 6.09949e-08 0)
(0.940792 3.81859e-08 0)
(0.940792 -6.09936e-08 0)
(0.940793 -3.81868e-08 0)
(0.953453 6.68439e-08 0)
(0.953452 4.06155e-08 0)
(0.953453 -6.68428e-08 0)
(0.953453 -4.06163e-08 0)
(0.965476 7.23587e-08 0)
(0.965476 4.37679e-08 0)
(0.965476 -7.23578e-08 0)
(0.965476 -4.37686e-08 0)
(0.97692 7.77111e-08 0)
(0.97692 4.8805e-08 0)
(0.97692 -7.77103e-08 0)
(0.97692 -4.88055e-08 0)
(0.987828 8.44306e-08 0)
(0.987827 5.68613e-08 0)
(0.987827 -8.443e-08 0)
(0.987828 -5.68616e-08 0)
(0.998226 9.55379e-08 0)
(0.998225 6.72087e-08 0)
(0.998225 -9.55373e-08 0)
(0.998226 -6.72092e-08 0)
(1.00813 1.12705e-07 0)
(1.00813 7.47221e-08 0)
(1.00813 -1.12704e-07 0)
(1.00813 -7.47227e-08 0)
(1.01754 1.2873e-07 0)
(1.01754 6.93534e-08 0)
(1.01754 -1.28731e-07 0)
(1.01754 -6.93518e-08 0)
(1.02645 1.21748e-07 0)
(1.02645 4.17376e-08 0)
(1.02645 -1.21748e-07 0)
(1.02645 -4.1733e-08 0)
(1.03487 7.13291e-08 0)
(1.03487 -7.21116e-09 0)
(1.03487 -7.13282e-08 0)
(1.03486 7.20718e-09 0)
(1.04282 5.65799e-09 0)
(1.04282 -6.74316e-08 0)
(1.04282 -5.65977e-09 0)
(1.04281 6.74271e-08 0)
(1.05036 -8.00646e-08 0)
(1.05037 -1.24229e-07 0)
(1.05037 8.00631e-08 0)
(1.05036 1.24233e-07 0)
(1.05755 -1.43954e-07 0)
(1.05755 -1.68795e-07 0)
(1.05755 1.43952e-07 0)
(1.05755 1.68798e-07 0)
(1.06439 -1.92365e-07 0)
(1.06439 -2.04504e-07 0)
(1.06439 1.92363e-07 0)
(1.06439 2.04507e-07 0)
(1.07089 -2.21313e-07 0)
(1.07089 -2.28512e-07 0)
(1.07089 2.2131e-07 0)
(1.07089 2.28516e-07 0)
(1.07707 -2.33253e-07 0)
(1.07707 -2.41844e-07 0)
(1.07707 2.33249e-07 0)
(1.07707 2.4185e-07 0)
(1.08293 -2.23284e-07 0)
(1.08293 -2.41745e-07 0)
(1.08292 2.23279e-07 0)
(1.08293 2.4175e-07 0)
(1.08847 -2.00657e-07 0)
(1.08847 -2.30439e-07 0)
(1.08847 2.00652e-07 0)
(1.08847 2.30443e-07 0)
(1.09369 -1.71724e-07 0)
(1.09369 -2.09864e-07 0)
(1.09369 1.71719e-07 0)
(1.09369 2.09869e-07 0)
(1.09861 -1.38914e-07 0)
(1.09861 -1.82069e-07 0)
(1.09861 1.3891e-07 0)
(1.09861 1.82074e-07 0)
(1.10321 -1.02008e-07 0)
(1.1032 -1.49686e-07 0)
(1.1032 1.02003e-07 0)
(1.10321 1.49691e-07 0)
(1.10749 -6.19551e-08 0)
(1.10748 -1.15717e-07 0)
(1.10749 6.19501e-08 0)
(1.10749 1.1572e-07 0)
(1.11144 -2.87121e-08 0)
(1.11144 -8.28376e-08 0)
(1.11144 2.87082e-08 0)
(1.11144 8.28407e-08 0)
(1.11507 -3.45941e-09 0)
(1.11507 -5.58224e-08 0)
(1.11507 3.45563e-09 0)
(1.11507 5.58269e-08 0)
(1.11836 6.48976e-09 0)
(1.11836 -3.61662e-08 0)
(1.11836 -6.49372e-09 0)
(1.11836 3.61705e-08 0)
(1.1213 5.86951e-09 0)
(1.1213 -2.4427e-08 0)
(1.1213 -5.8735e-09 0)
(1.1213 2.44311e-08 0)
(1.12388 -1.88417e-09 0)
(1.12389 -1.99314e-08 0)
(1.12388 1.88017e-09 0)
(1.12388 1.99354e-08 0)
(1.12609 -1.38702e-08 0)
(1.12609 -2.00051e-08 0)
(1.12609 1.38664e-08 0)
(1.12609 2.00089e-08 0)
(1.12791 -2.22786e-08 0)
(1.12791 -2.07074e-08 0)
(1.12791 2.22747e-08 0)
(1.12791 2.07111e-08 0)
(1.12931 -2.61832e-08 0)
(1.12931 -1.93531e-08 0)
(1.12931 2.61806e-08 0)
(1.12931 1.93564e-08 0)
(1.13028 -2.09604e-08 0)
(1.13028 -1.35256e-08 0)
(1.13028 2.0959e-08 0)
(1.13028 1.35276e-08 0)
(1.13078 -8.16352e-09 0)
(1.13078 -4.77185e-09 0)
(1.13078 8.16298e-09 0)
(1.13078 4.77229e-09 0)
)
;

boundaryField
{
    inlet
    {
        type            cyclic;
    }
    outlet
    {
        type            cyclic;
    }
    fixedWalls-bottom
    {
        type            noSlip;
    }
    fixedWalls-top
    {
        type            symmetry;
    }
    frontAndBack
    {
        type            empty;
    }
}


// ************************************************************************* //
