/*--------------------------------*- C++ -*----------------------------------*\
  =========                 |
  \\      /  F ield         | OpenFOAM: The Open Source CFD Toolbox
   \\    /   O peration     | Website:  https://openfoam.org
    \\  /    A nd           | Version:  10
     \\/     M anipulation  |
\*---------------------------------------------------------------------------*/
FoamFile
{
    format      ascii;
    class       volScalarField;
    location    "7500";
    object      k;
}
// * * * * * * * * * * * * * * * * * * * * * * * * * * * * * * * * * * * * * //

dimensions      [0 2 -2 0 0 0 0];

internalField   nonuniform List<scalar> 
400
(
2.22045e-16
2.22045e-16
2.22045e-16
2.22045e-16
2.22045e-16
2.22045e-16
2.22045e-16
2.22045e-16
2.22045e-16
2.22045e-16
2.22045e-16
2.22045e-16
2.22045e-16
2.22045e-16
2.22045e-16
2.22045e-16
2.22045e-16
2.22045e-16
2.22045e-16
2.22045e-16
2.22045e-16
2.22045e-16
2.22045e-16
2.22045e-16
2.22045e-16
2.22045e-16
2.22045e-16
2.22045e-16
2.22045e-16
2.22045e-16
2.22045e-16
2.22045e-16
2.22045e-16
2.22045e-16
2.22045e-16
2.22045e-16
2.22045e-16
2.22045e-16
2.22045e-16
2.22045e-16
2.22045e-16
2.22045e-16
2.22045e-16
2.22045e-16
2.22045e-16
2.22045e-16
2.22045e-16
2.22045e-16
2.22045e-16
2.22045e-16
2.22045e-16
2.22045e-16
2.22045e-16
2.22045e-16
2.22045e-16
2.22045e-16
2.22045e-16
2.22045e-16
2.22045e-16
2.22045e-16
2.22045e-16
2.22045e-16
2.22045e-16
2.22045e-16
2.22045e-16
2.22045e-16
2.22045e-16
2.22045e-16
2.22045e-16
2.22045e-16
2.22045e-16
2.22045e-16
2.22045e-16
2.22045e-16
2.22045e-16
2.22045e-16
2.22045e-16
2.22045e-16
2.22045e-16
2.22045e-16
2.22045e-16
2.22045e-16
2.22045e-16
2.22045e-16
2.22045e-16
2.22045e-16
2.22045e-16
2.22045e-16
2.22045e-16
2.22045e-16
2.22045e-16
2.22045e-16
2.22045e-16
2.22045e-16
2.22045e-16
2.22045e-16
2.22045e-16
2.22045e-16
2.22045e-16
2.22045e-16
2.22045e-16
2.22045e-16
2.22045e-16
2.22045e-16
2.22045e-16
2.22045e-16
2.22045e-16
2.22045e-16
2.22045e-16
2.22045e-16
2.22045e-16
2.22045e-16
2.22045e-16
2.22045e-16
2.22045e-16
2.22045e-16
2.22045e-16
2.22045e-16
2.22045e-16
2.22045e-16
2.22045e-16
2.22045e-16
2.22045e-16
2.22045e-16
2.22045e-16
2.22045e-16
2.22045e-16
2.22045e-16
2.22045e-16
2.22045e-16
2.22045e-16
2.22045e-16
2.22045e-16
2.22045e-16
2.22045e-16
2.22045e-16
2.22045e-16
2.22045e-16
2.22045e-16
2.22045e-16
2.22045e-16
2.22045e-16
2.22045e-16
2.22045e-16
2.22045e-16
2.22045e-16
2.22045e-16
2.22045e-16
2.2325e-16
2.23151e-16
2.23172e-16
2.23371e-16
2.26297e-16
2.26149e-16
2.26172e-16
2.26458e-16
2.30532e-16
2.30334e-16
2.30356e-16
2.30719e-16
2.35901e-16
2.35657e-16
2.35673e-16
2.36104e-16
2.4236e-16
2.42071e-16
2.4208e-16
2.4257e-16
2.49864e-16
2.49534e-16
2.49533e-16
2.50077e-16
2.58375e-16
2.58007e-16
2.57993e-16
2.58587e-16
2.67852e-16
2.6745e-16
2.67422e-16
2.68062e-16
2.78253e-16
2.7782e-16
2.77778e-16
2.78461e-16
2.89533e-16
2.89073e-16
2.89016e-16
2.89739e-16
3.01641e-16
3.01155e-16
3.01084e-16
3.01847e-16
3.14516e-16
3.14005e-16
3.13923e-16
3.14724e-16
3.28086e-16
3.27548e-16
3.27458e-16
3.28297e-16
3.42262e-16
3.41697e-16
3.41602e-16
3.42478e-16
3.56937e-16
3.56345e-16
3.56246e-16
3.57161e-16
3.71986e-16
3.71367e-16
3.71266e-16
3.72219e-16
3.87263e-16
3.86619e-16
3.86516e-16
3.87506e-16
4.02604e-16
4.01935e-16
4.01829e-16
4.02856e-16
4.17827e-16
4.17135e-16
4.17026e-16
4.18089e-16
4.32738e-16
4.32026e-16
4.31914e-16
4.33009e-16
4.47136e-16
4.46406e-16
4.46291e-16
4.47416e-16
4.60818e-16
4.60073e-16
4.59954e-16
4.61104e-16
4.73582e-16
4.72824e-16
4.72703e-16
4.73872e-16
4.85231e-16
4.84464e-16
4.84341e-16
4.85523e-16
4.95577e-16
4.94807e-16
4.94681e-16
4.95869e-16
5.04448e-16
5.03679e-16
5.03551e-16
5.04737e-16
5.11686e-16
5.10922e-16
5.10791e-16
5.11968e-16
5.17152e-16
5.16399e-16
5.16263e-16
5.17426e-16
5.20732e-16
5.19993e-16
5.19851e-16
5.20996e-16
5.22335e-16
5.21616e-16
5.21465e-16
5.22589e-16
5.21902e-16
5.21207e-16
5.21045e-16
5.22145e-16
5.19401e-16
5.18736e-16
5.18561e-16
5.19632e-16
5.14828e-16
5.14206e-16
5.14014e-16
5.15051e-16
5.08213e-16
5.07649e-16
5.07434e-16
5.08434e-16
4.99621e-16
4.99132e-16
4.98886e-16
4.99847e-16
4.89152e-16
4.88749e-16
4.88466e-16
4.89389e-16
4.76939e-16
4.76606e-16
4.76306e-16
4.77189e-16
4.63144e-16
4.62863e-16
4.62563e-16
4.63406e-16
4.47949e-16
4.4771e-16
4.47417e-16
4.48225e-16
4.31559e-16
4.31377e-16
4.31074e-16
4.31855e-16
4.14202e-16
4.14075e-16
4.13776e-16
4.14525e-16
3.96146e-16
3.96052e-16
3.95777e-16
3.9648e-16
3.7765e-16
3.77575e-16
3.77329e-16
3.77982e-16
3.58982e-16
3.5892e-16
3.58701e-16
3.59304e-16
3.40417e-16
3.40363e-16
3.40167e-16
3.40721e-16
3.22231e-16
3.22183e-16
3.22007e-16
3.22513e-16
3.047e-16
3.04656e-16
3.04496e-16
3.04958e-16
2.88099e-16
2.88057e-16
2.87912e-16
2.8833e-16
2.72697e-16
2.72656e-16
2.72525e-16
2.72901e-16
2.58762e-16
2.58716e-16
2.58605e-16
2.58937e-16
2.46557e-16
2.46501e-16
2.46422e-16
2.467e-16
2.3635e-16
2.36276e-16
2.36246e-16
2.36454e-16
2.2841e-16
2.28322e-16
2.28346e-16
2.28462e-16
2.23016e-16
2.22945e-16
2.23005e-16
2.22992e-16
2.22045e-16
2.22045e-16
2.22045e-16
2.22045e-16
2.22045e-16
2.22045e-16
2.22045e-16
2.22045e-16
2.22045e-16
2.22045e-16
2.22045e-16
2.22045e-16
2.22045e-16
2.22045e-16
2.22045e-16
2.22045e-16
2.22045e-16
2.22045e-16
2.22045e-16
2.22045e-16
2.22045e-16
2.22045e-16
2.22045e-16
2.22045e-16
2.22045e-16
2.22045e-16
2.22045e-16
2.22045e-16
2.22045e-16
2.22045e-16
2.22045e-16
2.22045e-16
2.22045e-16
2.22045e-16
2.22045e-16
2.22045e-16
)
;

boundaryField
{
    inlet
    {
        type            cyclic;
    }
    outlet
    {
        type            cyclic;
    }
    fixedWalls-bottom
    {
        type            kqRWallFunction;
        value           uniform 2.22045e-16;
    }
    fixedWalls-top
    {
        type            symmetry;
    }
    frontAndBack
    {
        type            empty;
    }
}


// ************************************************************************* //
