/*--------------------------------*- C++ -*----------------------------------*\
  =========                 |
  \\      /  F ield         | OpenFOAM: The Open Source CFD Toolbox
   \\    /   O peration     | Website:  https://openfoam.org
    \\  /    A nd           | Version:  10
     \\/     M anipulation  |
\*---------------------------------------------------------------------------*/
FoamFile
{
    format      ascii;
    class       volScalarField;
    location    "7500";
    object      nut;
}
// * * * * * * * * * * * * * * * * * * * * * * * * * * * * * * * * * * * * * //

dimensions      [0 2 -1 0 0 0 0];

internalField   nonuniform List<scalar> 
400
(
5.66356e-21
5.66356e-21
5.66356e-21
5.66356e-21
3.45365e-20
3.45365e-20
3.45365e-20
3.45365e-20
1.0473e-19
1.0473e-19
1.0473e-19
1.0473e-19
2.25191e-19
2.25191e-19
2.25191e-19
2.25191e-19
3.99582e-19
3.99584e-19
3.99587e-19
3.99586e-19
6.28214e-19
6.28226e-19
6.28237e-19
6.28234e-19
9.09746e-19
9.09781e-19
9.09802e-19
9.09797e-19
1.24368e-18
1.24376e-18
1.24378e-18
1.24378e-18
1.63087e-18
1.631e-18
1.63103e-18
1.63101e-18
2.07319e-18
2.07337e-18
2.0734e-18
2.07338e-18
2.57329e-18
2.57353e-18
2.57357e-18
2.57354e-18
3.13363e-18
3.13394e-18
3.13398e-18
3.13394e-18
3.75489e-18
3.75528e-18
3.75535e-18
3.75531e-18
4.43571e-18
4.43622e-18
4.43635e-18
4.4363e-18
5.17316e-18
5.17386e-18
5.17409e-18
5.17402e-18
5.96304e-18
5.964e-18
5.96441e-18
5.96431e-18
6.7999e-18
6.80125e-18
6.80192e-18
6.80178e-18
7.67718e-18
7.67907e-18
7.68012e-18
7.67995e-18
8.5874e-18
8.58998e-18
8.59158e-18
8.59137e-18
9.52239e-18
9.52585e-18
9.52817e-18
9.52795e-18
1.04736e-17
1.04782e-17
1.04815e-17
1.04813e-17
1.14327e-17
1.14385e-17
1.1443e-17
1.14429e-17
1.23916e-17
1.23987e-17
1.24048e-17
1.2405e-17
1.33428e-17
1.33513e-17
1.33593e-17
1.33599e-17
1.42801e-17
1.429e-17
1.43001e-17
1.43014e-17
1.51982e-17
1.52093e-17
1.52218e-17
1.52241e-17
1.60929e-17
1.61052e-17
1.61201e-17
1.61239e-17
1.69615e-17
1.69745e-17
1.69919e-17
1.69979e-17
1.78021e-17
1.78154e-17
1.78352e-17
1.78442e-17
1.86141e-17
1.86273e-17
1.86491e-17
1.8662e-17
1.93975e-17
1.94103e-17
1.94338e-17
1.94513e-17
2.01533e-17
2.01654e-17
2.019e-17
2.02131e-17
2.08828e-17
2.08943e-17
2.09193e-17
2.09486e-17
2.15879e-17
2.15988e-17
2.16237e-17
2.16596e-17
2.22709e-17
2.22812e-17
2.23057e-17
2.23483e-17
2.29342e-17
2.29439e-17
2.2968e-17
2.30172e-17
2.35805e-17
2.35897e-17
2.36138e-17
2.36687e-17
2.43441e-17
2.4342e-17
2.43687e-17
2.44511e-17
2.53088e-17
2.53008e-17
2.53282e-17
2.5427e-17
2.64179e-17
2.64038e-17
2.64318e-17
2.65466e-17
2.76778e-17
2.76577e-17
2.76861e-17
2.78166e-17
2.90953e-17
2.90693e-17
2.90978e-17
2.92443e-17
3.06776e-17
3.06459e-17
3.06744e-17
3.0837e-17
3.24322e-17
3.23953e-17
3.24236e-17
3.2603e-17
3.43677e-17
3.43258e-17
3.43537e-17
3.45509e-17
3.64931e-17
3.64466e-17
3.64743e-17
3.669e-17
3.88185e-17
3.87675e-17
3.87955e-17
3.90309e-17
4.1355e-17
4.12993e-17
4.13289e-17
4.15849e-17
4.41137e-17
4.40526e-17
4.40858e-17
4.43637e-17
4.71037e-17
4.70356e-17
4.70755e-17
4.73768e-17
5.033e-17
5.02529e-17
5.03032e-17
5.06299e-17
5.37919e-17
5.37048e-17
5.37681e-17
5.41234e-17
5.74818e-17
5.73863e-17
5.74633e-17
5.78507e-17
6.13843e-17
6.12866e-17
6.13733e-17
6.17961e-17
6.54797e-17
6.53754e-17
6.54716e-17
6.59331e-17
6.97301e-17
6.96175e-17
6.97237e-17
7.02257e-17
7.4085e-17
7.39741e-17
7.40891e-17
7.46322e-17
7.85115e-17
7.83973e-17
7.85222e-17
7.91103e-17
8.29637e-17
8.28435e-17
8.29799e-17
8.36137e-17
8.73955e-17
8.72681e-17
8.74171e-17
8.80956e-17
9.17602e-17
9.1626e-17
9.17885e-17
9.25091e-17
9.60116e-17
9.58718e-17
9.60486e-17
9.68069e-17
1.00104e-16
9.99598e-17
1.00152e-16
1.00942e-16
1.03993e-16
1.03843e-16
1.04051e-16
1.04868e-16
1.07635e-16
1.07475e-16
1.07699e-16
1.08541e-16
1.10984e-16
1.10806e-16
1.11045e-16
1.11917e-16
1.13977e-16
1.13807e-16
1.14047e-16
1.14953e-16
1.16617e-16
1.16425e-16
1.16672e-16
1.17618e-16
1.18866e-16
1.18635e-16
1.18897e-16
1.19874e-16
1.20658e-16
1.20424e-16
1.2069e-16
1.21686e-16
1.21972e-16
1.21773e-16
1.22018e-16
1.23035e-16
1.22788e-16
1.22684e-16
1.22861e-16
1.23905e-16
1.23103e-16
1.23198e-16
1.23193e-16
1.2429e-16
1.22962e-16
1.23093e-16
1.2308e-16
1.2419e-16
1.22361e-16
1.22468e-16
1.22496e-16
1.23611e-16
1.21304e-16
1.2131e-16
1.21459e-16
1.22577e-16
1.19783e-16
1.19926e-16
1.19871e-16
1.21122e-16
1.1772e-16
1.18078e-16
1.17899e-16
1.19257e-16
1.15425e-16
1.1581e-16
1.15653e-16
1.16991e-16
1.12831e-16
1.13235e-16
1.13094e-16
1.14409e-16
1.09997e-16
1.10414e-16
1.10281e-16
1.11575e-16
1.06991e-16
1.07415e-16
1.07285e-16
1.08559e-16
1.03891e-16
1.04317e-16
1.04187e-16
1.05441e-16
1.00783e-16
1.01209e-16
1.01074e-16
1.02309e-16
9.77633e-17
9.81833e-17
9.80404e-17
9.92615e-17
9.49371e-17
9.53444e-17
9.51924e-17
9.64026e-17
9.2421e-17
9.28017e-17
9.26487e-17
9.38455e-17
9.03475e-17
9.06707e-17
9.05558e-17
9.1708e-17
8.88774e-17
8.90652e-17
8.91236e-17
9.01068e-17
8.8238e-17
8.80554e-17
8.85664e-17
8.91782e-17
8.82993e-17
8.81074e-17
8.86898e-17
8.91692e-17
9.00314e-17
8.98504e-17
9.04397e-17
9.09235e-17
9.21005e-17
9.1916e-17
9.25088e-17
9.30393e-17
9.41109e-17
9.39248e-17
9.44635e-17
9.51195e-17
9.60279e-17
9.59007e-17
9.62876e-17
9.71168e-17
9.78084e-17
9.80525e-17
9.81208e-17
9.89363e-17
9.94611e-17
9.97785e-17
9.98113e-17
1.00628e-16
1.00918e-16
1.01243e-16
1.01327e-16
1.02119e-16
1.02111e-16
1.02368e-16
1.02632e-16
1.03354e-16
1.02958e-16
1.02969e-16
1.03632e-16
1.04313e-16
)
;

boundaryField
{
    inlet
    {
        type            cyclic;
    }
    outlet
    {
        type            cyclic;
    }
    fixedWalls-bottom
    {
        type            nutkWallFunction;
        Cmu             0.09;
        kappa           0.41;
        E               9.8;
        value           uniform 0;
    }
    fixedWalls-top
    {
        type            symmetry;
    }
    frontAndBack
    {
        type            empty;
    }
}


// ************************************************************************* //
