/*--------------------------------*- C++ -*----------------------------------*\
  =========                 |
  \\      /  F ield         | OpenFOAM: The Open Source CFD Toolbox
   \\    /   O peration     | Website:  https://openfoam.org
    \\  /    A nd           | Version:  10
     \\/     M anipulation  |
\*---------------------------------------------------------------------------*/
FoamFile
{
    format      ascii;
    class       volVectorField;
    location    "7500";
    object      U;
}
// * * * * * * * * * * * * * * * * * * * * * * * * * * * * * * * * * * * * * //

dimensions      [0 1 -1 0 0 0 0];

internalField   nonuniform List<vector> 
400
(
(0.00692016 5.96347e-18 0)
(0.00692016 -1.23139e-20 0)
(0.00692016 2.18167e-21 0)
(0.00692016 -7.66505e-21 0)
(0.0207938 -9.16835e-18 0)
(0.0207938 -2.26371e-19 0)
(0.0207938 2.65238e-19 0)
(0.0207938 2.39246e-19 0)
(0.0347969 -1.85446e-18 0)
(0.0347969 -8.54242e-19 0)
(0.0347969 7.01995e-19 0)
(0.0347969 7.50387e-19 0)
(0.0489294 -2.95601e-18 0)
(0.0489294 -1.76639e-18 0)
(0.0489294 1.38837e-18 0)
(0.0489294 1.59092e-18 0)
(0.0631914 -3.68867e-18 0)
(0.0631914 -3.02862e-18 0)
(0.0631914 2.32353e-18 0)
(0.0631914 2.81511e-18 0)
(0.0775825 -4.46012e-18 0)
(0.0775825 -4.83156e-18 0)
(0.0775825 3.47125e-18 0)
(0.0775825 4.61723e-18 0)
(0.0921025 -5.38604e-18 0)
(0.0921025 -7.38682e-18 0)
(0.0921025 4.83367e-18 0)
(0.0921025 7.11017e-18 0)
(0.106751 -6.59774e-18 0)
(0.106751 -1.07275e-17 0)
(0.106751 6.40675e-18 0)
(0.106751 1.0325e-17 0)
(0.121528 -7.50621e-18 0)
(0.121528 -1.40306e-17 0)
(0.121528 7.71862e-18 0)
(0.121528 1.34334e-17 0)
(0.136433 -8.51334e-18 0)
(0.136433 -1.74265e-17 0)
(0.136433 8.94312e-18 0)
(0.136433 1.68029e-17 0)
(0.151466 -9.6044e-18 0)
(0.151466 -2.08946e-17 0)
(0.151466 1.01786e-17 0)
(0.151466 2.03843e-17 0)
(0.166625 -1.0663e-17 0)
(0.166625 -2.40521e-17 0)
(0.166625 1.13767e-17 0)
(0.166625 2.36693e-17 0)
(0.181911 -1.18102e-17 0)
(0.181911 -2.74629e-17 0)
(0.181911 1.30032e-17 0)
(0.181911 2.67432e-17 0)
(0.197322 -1.28033e-17 0)
(0.197322 -3.08189e-17 0)
(0.197322 1.46054e-17 0)
(0.197322 2.97926e-17 0)
(0.212858 -1.37098e-17 0)
(0.212858 -3.32056e-17 0)
(0.212858 1.55523e-17 0)
(0.212858 3.24308e-17 0)
(0.228518 -1.45811e-17 0)
(0.228518 -3.4497e-17 0)
(0.228518 1.61994e-17 0)
(0.228518 3.40002e-17 0)
(0.2443 -1.49605e-17 0)
(0.2443 -3.5492e-17 0)
(0.2443 1.68234e-17 0)
(0.2443 3.49174e-17 0)
(0.260205 -1.49967e-17 0)
(0.260205 -3.71954e-17 0)
(0.260205 1.73108e-17 0)
(0.260205 3.61078e-17 0)
(0.27623 -1.42983e-17 0)
(0.27623 -3.78978e-17 0)
(0.27623 1.71118e-17 0)
(0.27623 3.6055e-17 0)
(0.292375 -1.22857e-17 0)
(0.292375 -3.74175e-17 0)
(0.292375 1.56588e-17 0)
(0.292375 3.51227e-17 0)
(0.308638 -9.21763e-18 0)
(0.308638 -3.56865e-17 0)
(0.308638 1.3095e-17 0)
(0.308638 3.31142e-17 0)
(0.325018 -6.28617e-18 0)
(0.325018 -3.23422e-17 0)
(0.325018 9.53486e-18 0)
(0.325018 2.98269e-17 0)
(0.341513 -2.67677e-18 0)
(0.341513 -2.79514e-17 0)
(0.341513 5.12469e-18 0)
(0.341513 2.62655e-17 0)
(0.358122 2.0557e-18 0)
(0.358122 -2.33981e-17 0)
(0.358122 8.30905e-19 0)
(0.358122 2.14748e-17 0)
(0.374842 6.55098e-18 0)
(0.374842 -1.89186e-17 0)
(0.374842 -3.36242e-18 0)
(0.374842 1.66549e-17 0)
(0.391672 1.06565e-17 0)
(0.391672 -1.41981e-17 0)
(0.391672 -7.7945e-18 0)
(0.391672 1.29506e-17 0)
(0.40861 1.43685e-17 0)
(0.40861 -9.57772e-18 0)
(0.40861 -1.20414e-17 0)
(0.40861 8.96217e-18 0)
(0.425654 1.88838e-17 0)
(0.425654 -5.82061e-18 0)
(0.425654 -1.64072e-17 0)
(0.425654 4.95527e-18 0)
(0.442801 2.2737e-17 0)
(0.442801 -2.8169e-18 0)
(0.442801 -2.03413e-17 0)
(0.442801 1.98295e-18 0)
(0.460048 2.61112e-17 0)
(0.460048 -5.69693e-19 0)
(0.460048 -2.42263e-17 0)
(0.460048 3.8494e-19 0)
(0.477395 2.98096e-17 0)
(0.477395 2.34475e-19 0)
(0.477395 -2.83741e-17 0)
(0.477395 -2.50906e-19 0)
(0.494836 3.29689e-17 0)
(0.494836 -1.53414e-19 0)
(0.494836 -3.20882e-17 0)
(0.494836 -4.80675e-21 0)
(0.512371 3.65652e-17 0)
(0.512371 -3.17858e-18 0)
(0.512371 -3.49307e-17 0)
(0.512371 1.83149e-18 0)
(0.529995 3.96697e-17 0)
(0.529995 -5.25803e-18 0)
(0.529995 -3.76107e-17 0)
(0.529995 3.61538e-18 0)
(0.547706 4.14199e-17 0)
(0.547706 -4.23578e-18 0)
(0.547706 -4.01646e-17 0)
(0.547706 4.82324e-18 0)
(0.5655 4.3002e-17 0)
(0.5655 -3.10035e-18 0)
(0.5655 -4.2209e-17 0)
(0.5655 5.53889e-18 0)
(0.583373 4.47094e-17 0)
(0.583373 -2.79989e-18 0)
(0.583373 -4.434e-17 0)
(0.583373 5.81074e-18 0)
(0.601322 4.62695e-17 0)
(0.601322 -1.81629e-18 0)
(0.601322 -4.64272e-17 0)
(0.601322 5.32343e-18 0)
(0.619343 4.76434e-17 0)
(0.619343 4.58548e-19 0)
(0.619343 -4.89935e-17 0)
(0.619343 3.50895e-18 0)
(0.637432 5.1505e-17 0)
(0.637432 2.13775e-18 0)
(0.637432 -5.23507e-17 0)
(0.637432 1.12033e-18 0)
(0.655584 5.56928e-17 0)
(0.655584 3.06453e-18 0)
(0.655584 -5.58285e-17 0)
(0.655584 -5.1525e-19 0)
(0.673795 5.71578e-17 0)
(0.673795 4.95069e-18 0)
(0.673795 -5.78116e-17 0)
(0.673795 -3.16273e-18 0)
(0.69206 5.81535e-17 0)
(0.69206 5.35341e-18 0)
(0.69206 -5.76131e-17 0)
(0.69206 -4.85158e-18 0)
(0.710374 5.92959e-17 0)
(0.710374 8.53857e-18 0)
(0.710374 -5.77612e-17 0)
(0.710374 -7.86185e-18 0)
(0.728732 6.06317e-17 0)
(0.728732 1.40304e-17 0)
(0.728732 -5.98348e-17 0)
(0.728732 -1.22482e-17 0)
(0.747128 6.30446e-17 0)
(0.747128 2.10309e-17 0)
(0.747128 -6.42042e-17 0)
(0.747128 -1.70463e-17 0)
(0.765557 6.37236e-17 0)
(0.765557 2.79846e-17 0)
(0.765557 -6.68473e-17 0)
(0.765557 -2.14907e-17 0)
(0.784013 6.3718e-17 0)
(0.784013 3.53458e-17 0)
(0.784013 -6.85735e-17 0)
(0.784013 -2.81702e-17 0)
(0.802489 6.62895e-17 0)
(0.802489 4.6244e-17 0)
(0.802489 -7.17761e-17 0)
(0.802489 -3.91355e-17 0)
(0.820979 7.11209e-17 0)
(0.820979 5.77414e-17 0)
(0.820979 -7.58397e-17 0)
(0.820979 -5.24407e-17 0)
(0.839476 7.7003e-17 0)
(0.839476 6.52063e-17 0)
(0.839476 -7.88469e-17 0)
(0.839476 -6.29688e-17 0)
(0.857973 7.87574e-17 0)
(0.857973 6.88818e-17 0)
(0.857973 -7.96861e-17 0)
(0.857973 -6.58158e-17 0)
(0.876462 7.03922e-17 0)
(0.876462 7.37394e-17 0)
(0.876462 -7.62462e-17 0)
(0.876462 -6.53325e-17 0)
(0.894936 5.83165e-17 0)
(0.894936 7.8666e-17 0)
(0.894936 -6.88502e-17 0)
(0.894936 -6.66357e-17 0)
(0.913388 4.96315e-17 0)
(0.913388 7.88432e-17 0)
(0.913388 -5.7735e-17 0)
(0.913388 -6.89648e-17 0)
(0.931807 4.01345e-17 0)
(0.931807 7.2737e-17 0)
(0.931807 -4.4542e-17 0)
(0.931807 -6.68162e-17 0)
(0.950186 3.36665e-17 0)
(0.950186 6.59272e-17 0)
(0.950186 -3.45177e-17 0)
(0.950186 -6.23916e-17 0)
(0.968516 3.31675e-17 0)
(0.968516 5.55669e-17 0)
(0.968516 -3.09754e-17 0)
(0.968516 -5.26122e-17 0)
(0.986787 3.36618e-17 0)
(0.986787 4.55365e-17 0)
(0.986787 -3.13411e-17 0)
(0.986787 -4.27519e-17 0)
(1.00499 3.30388e-17 0)
(1.00499 3.55295e-17 0)
(1.00499 -2.82387e-17 0)
(1.00499 -3.56536e-17 0)
(1.02311 3.0703e-17 0)
(1.02311 2.99224e-17 0)
(1.02311 -2.33233e-17 0)
(1.02311 -3.38658e-17 0)
(1.04115 2.56393e-17 0)
(1.04115 3.10551e-17 0)
(1.04115 -2.06778e-17 0)
(1.04115 -3.19816e-17 0)
(1.05908 1.4169e-17 0)
(1.05908 2.97172e-17 0)
(1.05908 -1.32549e-17 0)
(1.05908 -2.43992e-17 0)
(1.0769 7.67626e-19 0)
(1.0769 2.65874e-17 0)
(1.0769 -1.62389e-18 0)
(1.0769 -1.94793e-17 0)
(1.0946 -9.63541e-18 0)
(1.0946 2.43723e-17 0)
(1.0946 9.7343e-18 0)
(1.0946 -1.7877e-17 0)
(1.11216 -1.8202e-17 0)
(1.11216 2.34568e-17 0)
(1.11216 2.01663e-17 0)
(1.11216 -1.87542e-17 0)
(1.12957 -2.30672e-17 0)
(1.12957 2.98111e-17 0)
(1.12957 2.50806e-17 0)
(1.12957 -2.67043e-17 0)
(1.14682 -2.27069e-17 0)
(1.14682 3.85844e-17 0)
(1.14682 2.46917e-17 0)
(1.14682 -3.58801e-17 0)
(1.16389 -2.33546e-17 0)
(1.16389 4.55026e-17 0)
(1.16389 2.42396e-17 0)
(1.16389 -4.08267e-17 0)
(1.18077 -2.42859e-17 0)
(1.18077 4.79259e-17 0)
(1.18077 2.09301e-17 0)
(1.18077 -4.01362e-17 0)
(1.19744 -3.08217e-17 0)
(1.19744 4.11025e-17 0)
(1.19744 2.09318e-17 0)
(1.19744 -2.80116e-17 0)
(1.21389 -4.00223e-17 0)
(1.21389 3.17497e-17 0)
(1.21389 2.78133e-17 0)
(1.21389 -1.88641e-17 0)
(1.23011 -4.07143e-17 0)
(1.23011 2.14557e-17 0)
(1.23011 2.9886e-17 0)
(1.23011 -1.05369e-17 0)
(1.24607 -3.71592e-17 0)
(1.24607 1.52163e-17 0)
(1.24607 2.90787e-17 0)
(1.24607 -4.25203e-18 0)
(1.26176 -3.62095e-17 0)
(1.26176 4.12796e-18 0)
(1.26176 2.97457e-17 0)
(1.26176 4.12237e-18 0)
(1.27716 -4.00583e-17 0)
(1.27716 -2.49958e-18 0)
(1.27716 3.15118e-17 0)
(1.27716 1.0398e-17 0)
(1.29225 -4.51384e-17 0)
(1.29225 -1.27427e-17 0)
(1.29225 3.97216e-17 0)
(1.29225 1.56954e-17 0)
(1.30701 -5.1413e-17 0)
(1.30701 -1.89936e-17 0)
(1.30701 4.70308e-17 0)
(1.30701 1.98997e-17 0)
(1.32143 -6.04328e-17 0)
(1.32143 -1.94207e-17 0)
(1.32143 5.46772e-17 0)
(1.32143 2.3688e-17 0)
(1.33548 -6.33943e-17 0)
(1.33548 -1.94561e-17 0)
(1.33548 6.12184e-17 0)
(1.33548 2.30341e-17 0)
(1.34914 -6.58088e-17 0)
(1.34914 -1.7523e-17 0)
(1.34914 6.41397e-17 0)
(1.34914 1.99757e-17 0)
(1.36238 -6.44789e-17 0)
(1.36238 -1.05756e-17 0)
(1.36238 6.09366e-17 0)
(1.36238 1.084e-17 0)
(1.37519 -5.95481e-17 0)
(1.37519 -9.79915e-18 0)
(1.37519 5.0283e-17 0)
(1.37519 1.00953e-17 0)
(1.38755 -5.01737e-17 0)
(1.38755 -1.06152e-17 0)
(1.38755 3.657e-17 0)
(1.38755 1.14813e-17 0)
(1.39942 -3.09988e-17 0)
(1.39942 -1.5327e-17 0)
(1.39942 1.87214e-17 0)
(1.39942 1.61824e-17 0)
(1.41078 -2.07071e-17 0)
(1.41078 -2.6548e-17 0)
(1.41078 6.79271e-18 0)
(1.41078 3.05455e-17 0)
(1.42161 -1.73082e-17 0)
(1.42161 -4.00933e-17 0)
(1.42161 3.60018e-18 0)
(1.42161 4.32514e-17 0)
(1.43187 -1.14832e-17 0)
(1.43187 -4.83605e-17 0)
(1.43187 3.80769e-18 0)
(1.43187 4.80778e-17 0)
(1.44155 -6.7065e-18 0)
(1.44155 -5.47243e-17 0)
(1.44155 3.76076e-18 0)
(1.44155 5.40391e-17 0)
(1.4506 -7.28883e-18 0)
(1.4506 -5.22799e-17 0)
(1.4506 9.43145e-18 0)
(1.4506 4.63e-17 0)
(1.45901 -5.61278e-18 0)
(1.45901 -5.1442e-17 0)
(1.45901 1.19675e-17 0)
(1.45901 4.19094e-17 0)
(1.46673 -3.45235e-18 0)
(1.46673 -5.16842e-17 0)
(1.46673 1.00877e-17 0)
(1.46673 4.32751e-17 0)
(1.47374 -1.43023e-17 0)
(1.47374 -5.03898e-17 0)
(1.47374 1.93917e-17 0)
(1.47374 3.97121e-17 0)
(1.48 -2.69813e-17 0)
(1.48 -4.34288e-17 0)
(1.48 2.7827e-17 0)
(1.48 3.27592e-17 0)
(1.48549 -3.17943e-17 0)
(1.48549 -3.18959e-17 0)
(1.48549 2.52718e-17 0)
(1.48549 2.93204e-17 0)
(1.49015 -3.53724e-17 0)
(1.49015 -2.54024e-17 0)
(1.49015 2.662e-17 0)
(1.49015 3.14428e-17 0)
(1.49396 -3.35826e-17 0)
(1.49396 -2.08452e-17 0)
(1.49396 2.71042e-17 0)
(1.49396 3.16593e-17 0)
(1.49688 -2.7304e-17 0)
(1.49688 -4.98662e-18 0)
(1.49688 2.34877e-17 0)
(1.49688 1.54873e-17 0)
(1.49887 -1.85286e-17 0)
(1.49887 1.11283e-17 0)
(1.49887 1.88501e-17 0)
(1.49887 -6.84402e-18 0)
(1.49988 -8.61797e-18 0)
(1.49988 1.47398e-18 0)
(1.49988 9.38684e-18 0)
(1.49988 -1.2261e-18 0)
)
;

boundaryField
{
    inlet
    {
        type            cyclic;
    }
    outlet
    {
        type            cyclic;
    }
    fixedWalls-bottom
    {
        type            noSlip;
    }
    fixedWalls-top
    {
        type            symmetry;
    }
    frontAndBack
    {
        type            empty;
    }
}


// ************************************************************************* //
