# Residuals   
# Time        	p             	Ux            	Uy            
0             	N/A	N/A
1             	9.999903e-01	0.000000e+00	0.000000e+00
2             	1.000000e+00	3.020715e-01	1.000000e+00
3             	1.826262e-01	1.820405e-01	5.104836e-01
4             	1.432680e-01	6.539890e-02	3.603888e-01
5             	1.694740e-01	3.775266e-02	4.461443e-01
6             	1.214818e-01	2.379292e-02	6.471837e-01
7             	1.141191e-01	1.725058e-02	8.076015e-01
8             	1.133725e-01	1.374908e-02	8.980358e-01
9             	1.010278e-01	1.142599e-02	7.952319e-01
10            	9.811555e-02	1.002068e-02	6.365435e-01
11            	8.974225e-02	8.807424e-03	5.759214e-01
12            	8.908787e-02	7.953374e-03	5.744465e-01
13            	9.013920e-02	7.293670e-03	5.817659e-01
14            	9.057079e-02	6.656354e-03	5.691531e-01
15            	9.114822e-02	6.129743e-03	5.092177e-01
16            	9.066990e-02	5.749027e-03	4.572706e-01
17            	8.739163e-02	5.406261e-03	4.256490e-01
18            	9.054292e-02	5.106373e-03	4.625149e-01
19            	8.865189e-02	4.842833e-03	4.974306e-01
20            	9.114115e-02	4.631025e-03	5.606225e-01
21            	9.152078e-02	4.427581e-03	5.803029e-01
22            	9.120554e-02	4.209529e-03	5.740050e-01
23            	8.765967e-02	4.000372e-03	5.774612e-01
24            	8.444849e-02	3.766069e-03	5.625296e-01
25            	8.265854e-02	3.600842e-03	5.318931e-01
26            	8.205024e-02	3.389140e-03	5.128129e-01
27            	8.332589e-02	3.241084e-03	4.726564e-01
28            	8.318533e-02	3.044402e-03	4.451605e-01
29            	8.313240e-02	2.855151e-03	4.275054e-01
30            	8.225810e-02	2.737237e-03	4.287186e-01
31            	8.212877e-02	2.575704e-03	4.292016e-01
32            	8.418395e-02	2.512354e-03	4.430729e-01
33            	8.387658e-02	2.387006e-03	4.521164e-01
34            	8.528993e-02	2.267225e-03	4.506334e-01
35            	8.370314e-02	2.217104e-03	4.358664e-01
36            	8.087101e-02	2.099909e-03	4.089222e-01
37            	7.999276e-02	1.991798e-03	4.031592e-01
38            	7.611406e-02	1.887685e-03	3.956466e-01
39            	7.974264e-02	1.848243e-03	4.065231e-01
40            	7.531474e-02	1.744965e-03	4.076377e-01
41            	6.977405e-02	1.652473e-03	4.074804e-01
42            	6.943075e-02	1.564594e-03	3.997823e-01
43            	6.312264e-02	1.541928e-03	4.003292e-01
44            	5.793145e-02	1.459889e-03	3.686493e-01
45            	5.532694e-02	1.385963e-03	3.469843e-01
46            	5.359977e-02	1.309342e-03	3.413069e-01
47            	5.589350e-02	1.237457e-03	3.173391e-01
48            	5.582547e-02	1.232593e-03	2.901641e-01
49            	5.224403e-02	1.171480e-03	2.881181e-01
50            	4.607012e-02	1.113090e-03	2.865589e-01
51            	5.072276e-02	1.060962e-03	2.455674e-01
52            	5.909415e-02	1.008743e-03	2.902811e-01
53            	4.901758e-02	9.571929e-04	2.638999e-01
54            	4.723899e-02	8.997639e-04	2.351367e-01
55            	4.359827e-02	8.455707e-04	1.956121e-01
56            	8.172694e-02	8.592641e-04	2.696036e-01
57            	8.322952e-02	8.164218e-04	3.384523e-01
58            	6.888057e-02	7.753999e-04	3.353961e-01
59            	5.520286e-02	7.307254e-04	2.601166e-01
60            	5.508615e-02	6.930504e-04	2.074163e-01
61            	4.970916e-02	6.552541e-04	1.913469e-01
62            	4.324911e-02	6.159670e-04	1.273125e-01
63            	3.262248e-02	5.712668e-04	1.768965e-01
64            	4.908559e-02	5.302922e-04	1.864021e-01
65            	4.368880e-02	4.977212e-04	1.382990e-01
66            	3.721236e-02	4.583139e-04	1.315888e-01
67            	4.026992e-02	4.189787e-04	1.295838e-01
68            	3.679221e-02	3.842381e-04	1.302632e-01
69            	3.609735e-02	3.468683e-04	1.349368e-01
70            	4.321900e-02	3.058166e-04	1.556082e-01
71            	4.778528e-02	2.699518e-04	2.620154e-01
72            	2.680480e-02	2.511417e-04	1.281440e-01
73            	3.334440e-02	2.301482e-04	1.179534e-01
74            	5.097807e-02	2.105865e-04	1.915513e-01
75            	6.412172e-02	2.000782e-04	2.561099e-01
76            	3.871032e-02	1.933851e-04	1.660557e-01
77            	3.106165e-02	1.780657e-04	1.136322e-01
78            	4.334701e-02	1.740027e-04	1.348463e-01
79            	4.026724e-02	1.665099e-04	1.411476e-01
80            	3.492561e-02	1.646959e-04	1.688455e-01
81            	3.126837e-02	1.702774e-04	1.230979e-01
82            	3.645070e-02	1.750657e-04	1.450516e-01
83            	4.414230e-02	1.816834e-04	1.882766e-01
84            	5.195893e-02	1.886899e-04	1.783937e-01
85            	2.340577e-02	1.967755e-04	1.264484e-01
86            	3.730883e-02	2.153962e-04	1.402691e-01
87            	2.905649e-02	2.330696e-04	1.178724e-01
88            	3.504655e-02	2.490148e-04	1.357506e-01
89            	3.686074e-02	2.629052e-04	1.450419e-01
90            	3.770245e-02	2.776379e-04	1.423340e-01
91            	4.951900e-02	2.897695e-04	1.496757e-01
92            	3.690269e-02	3.011810e-04	1.322879e-01
93            	2.928690e-02	3.122072e-04	1.654148e-01
94            	3.583483e-02	3.203618e-04	1.304222e-01
95            	3.520316e-02	3.306757e-04	1.118524e-01
96            	3.829075e-02	3.365883e-04	1.385497e-01
97            	3.495385e-02	3.434784e-04	1.174261e-01
98            	2.766448e-02	3.488630e-04	9.229939e-02
99            	3.325824e-02	3.569836e-04	8.222033e-02
100           	2.772494e-02	3.626137e-04	1.123921e-01
101           	3.028866e-02	3.646088e-04	9.724946e-02
102           	3.131081e-02	3.686859e-04	9.431734e-02
103           	3.240055e-02	3.692923e-04	9.402849e-02
104           	2.630065e-02	3.689328e-04	9.010903e-02
105           	2.754722e-02	3.707650e-04	8.972632e-02
106           	2.723186e-02	3.705775e-04	9.025139e-02
107           	2.288886e-02	3.680092e-04	7.895278e-02
108           	2.382607e-02	3.662290e-04	7.235116e-02
109           	2.571644e-02	3.626506e-04	8.366536e-02
110           	1.878986e-02	3.591516e-04	6.676273e-02
111           	1.788896e-02	3.550571e-04	5.838890e-02
112           	1.505213e-02	3.513565e-04	4.688081e-02
113           	1.363186e-02	3.455193e-04	5.029079e-02
114           	1.349680e-02	3.397262e-04	5.026519e-02
115           	1.134570e-02	3.335128e-04	3.315420e-02
116           	8.802245e-03	3.266649e-04	2.940748e-02
117           	7.434181e-03	3.194970e-04	2.538637e-02
118           	7.758256e-03	3.120536e-04	3.434713e-02
119           	8.114352e-03	3.044553e-04	3.930271e-02
120           	9.048051e-03	2.966428e-04	4.334230e-02
121           	9.959462e-03	2.886142e-04	5.166661e-02
122           	1.050251e-02	2.803214e-04	5.176938e-02
123           	1.031437e-02	2.717958e-04	5.295559e-02
124           	1.094540e-02	2.631082e-04	5.847049e-02
125           	1.121723e-02	2.542707e-04	6.185429e-02
126           	1.249206e-02	2.453470e-04	6.720906e-02
127           	1.321403e-02	2.363138e-04	6.953943e-02
128           	1.362824e-02	2.272131e-04	6.226574e-02
129           	1.207440e-02	2.180448e-04	6.093008e-02
130           	1.206005e-02	2.089421e-04	5.620084e-02
131           	1.127150e-02	1.996748e-04	5.180692e-02
132           	1.229518e-02	1.903911e-04	5.654611e-02
133           	9.845568e-03	1.807732e-04	5.017472e-02
134           	1.127380e-02	1.714342e-04	6.401445e-02
135           	1.078990e-02	1.621432e-04	4.450795e-02
136           	1.135221e-02	1.530814e-04	6.370938e-02
137           	1.062942e-02	1.436719e-04	4.370038e-02
138           	1.112223e-02	1.340448e-04	6.106943e-02
139           	9.829259e-03	1.251661e-04	5.168930e-02
140           	1.153719e-02	1.143388e-04	5.603747e-02
141           	1.168212e-02	1.060433e-04	6.103795e-02
142           	9.676778e-03	9.828374e-05	4.309029e-02
143           	8.977825e-03	8.875251e-05	4.387797e-02
144           	8.082691e-03	8.119613e-05	4.967545e-02
145           	1.149190e-02	7.384102e-05	3.408779e-02
146           	8.855870e-03	6.588634e-05	3.669299e-02
147           	8.561922e-03	5.758708e-05	4.071948e-02
148           	1.052886e-02	5.067139e-05	3.782069e-02
149           	1.054069e-02	4.345945e-05	3.800487e-02
150           	9.855676e-03	3.710435e-05	4.775141e-02
151           	7.518087e-03	3.144312e-05	2.736130e-02
152           	8.228249e-03	2.510019e-05	4.589319e-02
153           	8.456593e-03	2.035126e-05	3.438524e-02
154           	1.131723e-02	1.585613e-05	3.640551e-02
155           	1.253872e-02	1.314540e-05	4.891450e-02
156           	8.657421e-03	1.532829e-05	5.380756e-02
157           	8.442157e-03	1.882024e-05	5.041623e-02
158           	1.082644e-02	2.046005e-05	6.561173e-02
159           	9.728531e-03	2.344921e-05	8.066568e-02
160           	9.002165e-03	2.780353e-05	6.597226e-02
161           	9.832454e-03	3.122829e-05	7.533824e-02
162           	6.656145e-03	3.566619e-05	6.311921e-02
163           	6.406906e-03	4.054232e-05	3.493024e-02
164           	9.143082e-03	4.412048e-05	4.175647e-02
165           	8.501117e-03	4.791708e-05	3.433307e-02
166           	6.413232e-03	5.211786e-05	3.401731e-02
167           	7.776880e-03	5.506418e-05	3.372971e-02
168           	4.827515e-03	5.793747e-05	3.212448e-02
169           	6.319619e-03	6.098179e-05	2.582119e-02
170           	6.783465e-03	6.343852e-05	3.252203e-02
171           	4.790428e-03	6.560549e-05	3.063179e-02
172           	6.065570e-03	6.757989e-05	2.567888e-02
173           	4.802209e-03	6.952554e-05	2.481156e-02
174           	4.020749e-03	7.090634e-05	2.950088e-02
175           	4.102720e-03	7.263668e-05	2.242973e-02
176           	5.357995e-03	7.394661e-05	1.773658e-02
177           	3.948175e-03	7.532411e-05	2.042295e-02
178           	4.096944e-03	7.604706e-05	1.690246e-02
179           	4.234305e-03	7.694369e-05	1.729061e-02
180           	3.447268e-03	7.734120e-05	1.721575e-02
181           	4.849744e-03	7.785947e-05	1.735519e-02
182           	3.385234e-03	7.793678e-05	1.462696e-02
183           	4.192368e-03	7.817013e-05	2.557240e-02
184           	3.484703e-03	7.796612e-05	1.529656e-02
185           	3.365866e-03	7.786622e-05	2.359934e-02
186           	2.885140e-03	7.743268e-05	1.428562e-02
187           	3.155135e-03	7.708051e-05	2.014778e-02
188           	2.911551e-03	7.643306e-05	1.461168e-02
189           	2.819040e-03	7.578783e-05	1.895676e-02
190           	2.857428e-03	7.500406e-05	1.575618e-02
191           	2.383347e-03	7.417780e-05	1.675156e-02
192           	2.685756e-03	7.320630e-05	1.618674e-02
193           	2.227164e-03	7.220421e-05	1.517774e-02
194           	2.647573e-03	7.106723e-05	1.699125e-02
195           	2.076765e-03	6.991563e-05	1.424755e-02
196           	2.433438e-03	6.864857e-05	1.713172e-02
197           	2.084191e-03	6.733228e-05	1.330159e-02
198           	2.482685e-03	6.595100e-05	1.945867e-02
199           	2.573281e-03	6.448523e-05	1.564377e-02
200           	2.629067e-03	6.296566e-05	2.076043e-02
201           	2.928493e-03	6.139622e-05	1.821557e-02
202           	2.918443e-03	5.978092e-05	2.027330e-02
203           	3.027576e-03	5.814487e-05	1.911853e-02
204           	2.995639e-03	5.648169e-05	1.917372e-02
205           	2.830002e-03	5.474971e-05	1.906709e-02
206           	2.950993e-03	5.308785e-05	2.066457e-02
207           	2.888341e-03	5.139921e-05	1.727680e-02
208           	2.957474e-03	4.968800e-05	1.485722e-02
209           	2.975037e-03	4.798417e-05	1.161275e-02
210           	2.968913e-03	4.625363e-05	1.274836e-02
211           	3.033870e-03	4.450596e-05	1.528712e-02
212           	3.292549e-03	4.274468e-05	1.508398e-02
213           	3.217489e-03	4.091521e-05	1.774900e-02
214           	3.410758e-03	3.907014e-05	1.676606e-02
215           	2.998027e-03	3.722171e-05	2.085190e-02
216           	3.467559e-03	3.548524e-05	1.943953e-02
217           	2.718554e-03	3.376025e-05	1.425125e-02
218           	3.229189e-03	3.201331e-05	1.737240e-02
219           	2.574516e-03	3.031544e-05	1.185768e-02
220           	2.781569e-03	2.857684e-05	1.285021e-02
221           	2.627229e-03	2.690607e-05	1.489325e-02
222           	2.701354e-03	2.519539e-05	1.228027e-02
223           	2.319645e-03	2.355792e-05	1.788698e-02
224           	2.686166e-03	2.201310e-05	1.642520e-02
225           	2.305146e-03	2.052062e-05	1.148029e-02
226           	2.334616e-03	1.898527e-05	1.538982e-02
227           	2.343770e-03	1.753354e-05	1.120551e-02
228           	2.942241e-03	1.603500e-05	1.006834e-02
229           	2.683499e-03	1.482731e-05	1.936675e-02
230           	2.250824e-03	1.344766e-05	1.862138e-02
231           	2.389742e-03	1.218857e-05	1.330124e-02
232           	1.911128e-03	1.091076e-05	1.050794e-02
233           	2.894266e-03	9.668346e-06	1.603257e-02
234           	2.375018e-03	8.936392e-06	1.811877e-02
235           	3.524186e-03	7.895471e-06	3.833141e-02
236           	2.537690e-03	6.871648e-06	3.395274e-02
237           	3.320529e-03	5.880447e-06	4.115622e-02
238           	2.001294e-03	4.967090e-06	2.789941e-02
239           	2.625365e-03	4.005437e-06	3.412425e-02
240           	1.243556e-03	3.495214e-06	1.583686e-02
241           	1.876840e-03	3.138397e-06	1.953519e-02
242           	1.087256e-03	3.420916e-06	6.623029e-03
