/*--------------------------------*- C++ -*----------------------------------*\
  =========                 |
  \\      /  F ield         | OpenFOAM: The Open Source CFD Toolbox
   \\    /   O peration     | Website:  https://openfoam.org
    \\  /    A nd           | Version:  10
     \\/     M anipulation  |
\*---------------------------------------------------------------------------*/
FoamFile
{
    format      ascii;
    class       volScalarField;
    location    "583";
    object      k;
}
// * * * * * * * * * * * * * * * * * * * * * * * * * * * * * * * * * * * * * //

dimensions      [0 2 -2 0 0 0 0];

internalField   nonuniform List<scalar> 
200
(
5.44431e-05
5.44424e-05
5.44401e-05
5.44396e-05
0.00146348
0.00146346
0.00146341
0.00146339
0.00469141
0.00469137
0.00469124
0.00469121
0.00617163
0.0061716
0.00617145
0.00617142
0.00683734
0.00683733
0.0068372
0.00683715
0.00715355
0.00715355
0.00715345
0.00715341
0.00730625
0.00730625
0.00730617
0.00730614
0.00737307
0.00737307
0.00737303
0.007373
0.00738901
0.00738901
0.00738898
0.00738897
0.00737128
0.00737128
0.00737127
0.00737126
0.00732991
0.00732991
0.0073299
0.00732991
0.00727111
0.0072711
0.0072711
0.00727111
0.00719889
0.00719887
0.00719889
0.0071989
0.00711597
0.00711595
0.00711597
0.00711598
0.00702426
0.00702423
0.00702426
0.00702427
0.00692512
0.00692509
0.00692512
0.00692513
0.00681957
0.00681954
0.00681957
0.00681958
0.00670825
0.00670821
0.00670825
0.00670825
0.0065915
0.00659147
0.0065915
0.0065915
0.00646956
0.00646953
0.00646956
0.00646956
0.00634264
0.00634261
0.00634264
0.00634264
0.00621108
0.00621107
0.00621109
0.00621108
0.00607541
0.00607541
0.00607543
0.0060754
0.00593631
0.00593631
0.00593633
0.00593629
0.00579449
0.00579449
0.00579451
0.00579447
0.00565041
0.00565042
0.00565043
0.00565038
0.00550425
0.00550425
0.00550426
0.0055042
0.00535621
0.00535621
0.00535622
0.00535615
0.00520664
0.00520665
0.00520665
0.00520657
0.00505589
0.00505591
0.0050559
0.00505582
0.00490438
0.00490439
0.00490439
0.0049043
0.00475255
0.00475256
0.00475256
0.00475248
0.00460091
0.00460091
0.00460092
0.00460083
0.00445
0.00445
0.00445001
0.00444992
0.00430043
0.00430044
0.00430043
0.00430035
0.00415288
0.00415288
0.00415287
0.00415278
0.00400804
0.00400803
0.00400803
0.00400794
0.00386669
0.00386669
0.0038667
0.00386661
0.0037297
0.00372971
0.00372972
0.00372963
0.00359798
0.00359799
0.00359799
0.00359791
0.00347246
0.00347249
0.00347247
0.00347239
0.00335416
0.00335417
0.00335418
0.0033541
0.00324414
0.00324415
0.00324416
0.00324408
0.00314349
0.0031435
0.00314352
0.00314344
0.00305337
0.00305338
0.00305339
0.00305332
0.00297495
0.00297496
0.00297497
0.0029749
0.00290948
0.00290948
0.00290949
0.00290943
0.00285824
0.00285823
0.00285824
0.00285818
0.00282258
0.00282257
0.00282259
0.00282253
0.00280397
0.00280396
0.00280397
0.00280391
)
;

boundaryField
{
    inlet
    {
        type            cyclic;
    }
    outlet
    {
        type            cyclic;
    }
    fixedWalls-bottom
    {
        type            kqRWallFunction;
        value           nonuniform List<scalar> 4(5.44431e-05 5.44424e-05 5.44401e-05 5.44396e-05);
    }
    fixedWalls-top
    {
        type            symmetry;
    }
    frontAndBack
    {
        type            empty;
    }
}


// ************************************************************************* //
