/*--------------------------------*- C++ -*----------------------------------*\
  =========                 |
  \\      /  F ield         | OpenFOAM: The Open Source CFD Toolbox
   \\    /   O peration     | Website:  https://openfoam.org
    \\  /    A nd           | Version:  10
     \\/     M anipulation  |
\*---------------------------------------------------------------------------*/
FoamFile
{
    format      ascii;
    class       volScalarField;
    location    "583";
    object      nut;
}
// * * * * * * * * * * * * * * * * * * * * * * * * * * * * * * * * * * * * * //

dimensions      [0 2 -1 0 0 0 0];

internalField   nonuniform List<scalar> 
200
(
1.42128e-07
1.42126e-07
1.4212e-07
1.42118e-07
1.7581e-05
1.75806e-05
1.75799e-05
1.75798e-05
0.000115276
0.000115276
0.000115272
0.000115271
0.00024783
0.00024783
0.000247823
0.000247821
0.000404708
0.000404709
0.000404702
0.000404697
0.000575835
0.000575837
0.00057583
0.000575823
0.000752151
0.000752144
0.000752123
0.000752121
0.000929508
0.000929502
0.000929487
0.000929487
0.0011098
0.00110979
0.00110978
0.00110978
0.00129202
0.00129202
0.00129202
0.00129203
0.00147551
0.00147551
0.00147551
0.00147553
0.00165975
0.00165975
0.00165975
0.00165978
0.00184435
0.00184436
0.00184436
0.0018444
0.00202901
0.00202902
0.00202903
0.00202908
0.00221347
0.00221347
0.00221349
0.00221355
0.00239749
0.00239754
0.00239753
0.00239762
0.00258095
0.002581
0.00258101
0.00258107
0.00276047
0.00276045
0.00276047
0.00276045
0.0029357
0.00293568
0.0029357
0.00293565
0.00310912
0.00310911
0.00310913
0.00310909
0.00328339
0.00328339
0.00328338
0.00328337
0.00346148
0.00346145
0.00346142
0.00346146
0.00364623
0.00364617
0.00364612
0.00364627
0.00383909
0.003839
0.00383899
0.00383926
0.00403745
0.00403738
0.00403745
0.00403762
0.00423037
0.00423028
0.00423036
0.00422974
0.00441305
0.00441283
0.00441283
0.00441209
0.00459423
0.00459403
0.0045938
0.00459308
0.00477387
0.004774
0.00477328
0.00477263
0.00495196
0.00495201
0.0049513
0.00495063
0.00512838
0.00512801
0.00512779
0.00512695
0.00530303
0.00530259
0.0053024
0.0053015
0.00547583
0.00547539
0.00547517
0.0054742
0.00564671
0.00564639
0.00564602
0.00564494
0.00581558
0.00581572
0.00581492
0.00581356
0.00598242
0.00598233
0.00598213
0.0059799
0.00614727
0.00614607
0.00614662
0.00614399
0.00630897
0.00630768
0.00630828
0.00630548
0.00646765
0.0064663
0.00646692
0.00646399
0.00662276
0.00662144
0.00662202
0.00661897
0.00677347
0.0067725
0.00677287
0.00676972
0.00691836
0.00691883
0.00691853
0.00691525
0.00705751
0.00705807
0.00705775
0.00705427
0.00718863
0.00718908
0.00718894
0.00718503
0.00730974
0.00730964
0.00730993
0.0073055
0.00741897
0.00741643
0.0074182
0.00741319
0.00751155
0.00750858
0.00751064
0.00750522
0.00758525
0.00758194
0.00758431
0.00757844
0.00763688
0.00763321
0.00763583
0.00762958
0.00766348
0.00765925
0.00766176
0.00765555
)
;

boundaryField
{
    inlet
    {
        type            cyclic;
    }
    outlet
    {
        type            cyclic;
    }
    fixedWalls-bottom
    {
        type            nutkWallFunction;
        Cmu             0.09;
        kappa           0.41;
        E               9.8;
        value           uniform 0;
    }
    fixedWalls-top
    {
        type            symmetry;
    }
    frontAndBack
    {
        type            empty;
    }
}


// ************************************************************************* //
