/*--------------------------------*- C++ -*----------------------------------*\
  =========                 |
  \\      /  F ield         | OpenFOAM: The Open Source CFD Toolbox
   \\    /   O peration     | Website:  https://openfoam.org
    \\  /    A nd           | Version:  10
     \\/     M anipulation  |
\*---------------------------------------------------------------------------*/
FoamFile
{
    format      ascii;
    class       volScalarField;
    location    "583";
    object      omega;
}
// * * * * * * * * * * * * * * * * * * * * * * * * * * * * * * * * * * * * * //

dimensions      [0 0 -1 0 0 0 0];

internalField   nonuniform List<scalar> 
200
(
383.058
383.058
383.058
383.058
83.2423
83.2428
83.243
83.2429
39.891
39.8917
39.892
39.8919
24.1849
24.1854
24.1858
24.1857
16.6055
16.6059
16.6062
16.6061
12.3572
12.3574
12.3577
12.3576
9.7138
9.7139
9.71406
9.71405
7.93222
7.93228
7.93236
7.93233
6.65799
6.65803
6.65806
6.65802
5.70522
5.70523
5.70524
5.70519
4.96772
4.96771
4.96771
4.96765
4.38085
4.38083
4.38083
4.38076
3.90321
3.90318
3.90319
3.9031
3.50712
3.50709
3.50709
3.507
3.17342
3.17341
3.17338
3.1733
2.88849
2.88842
2.88844
2.88834
2.64227
2.6422
2.64221
2.64215
2.42723
2.42718
2.42714
2.42716
2.23741
2.23741
2.23733
2.23737
2.06818
2.06819
2.06807
2.06814
1.91595
1.91593
1.91582
1.9159
1.77801
1.77794
1.77786
1.77793
1.65228
1.65221
1.65215
1.65224
1.53731
1.53726
1.53722
1.53733
1.43206
1.43204
1.432
1.43215
1.33568
1.33571
1.33568
1.33587
1.24727
1.24733
1.24733
1.24753
1.16586
1.16591
1.16597
1.16613
1.09065
1.09063
1.09079
1.09092
1.02099
1.02098
1.02113
1.02125
0.95632
0.956394
0.956434
0.956573
0.896195
0.896272
0.896303
0.896439
0.84022
0.840289
0.840324
0.840457
0.788069
0.788113
0.788166
0.788303
0.739467
0.73945
0.739551
0.73971
0.694181
0.694191
0.694213
0.694457
0.652003
0.652129
0.652071
0.652336
0.612888
0.613013
0.612956
0.613214
0.576671
0.576792
0.576738
0.576986
0.543274
0.543384
0.543337
0.543575
0.512657
0.512734
0.512704
0.51293
0.48482
0.484789
0.484811
0.485029
0.459672
0.459637
0.459659
0.459875
0.437287
0.437261
0.437271
0.437498
0.417712
0.41772
0.417705
0.417948
0.400993
0.401131
0.401037
0.401299
0.387334
0.387487
0.387382
0.387654
0.376815
0.376978
0.376862
0.377147
0.369599
0.369775
0.36965
0.369945
0.365887
0.366087
0.365969
0.366259
)
;

boundaryField
{
    inlet
    {
        type            cyclic;
    }
    outlet
    {
        type            cyclic;
    }
    fixedWalls-bottom
    {
        beta1           0.075;
        blended         0;
        type            omegaWallFunction;
        value           nonuniform List<scalar> 4(383.058 383.058 383.058 383.058);
    }
    fixedWalls-top
    {
        type            symmetry;
    }
    frontAndBack
    {
        type            empty;
    }
}


// ************************************************************************* //
