/*--------------------------------*- C++ -*----------------------------------*\
  =========                 |
  \\      /  F ield         | OpenFOAM: The Open Source CFD Toolbox
   \\    /   O peration     | Website:  https://openfoam.org
    \\  /    A nd           | Version:  10
     \\/     M anipulation  |
\*---------------------------------------------------------------------------*/
FoamFile
{
    format      ascii;
    class       volScalarField;
    location    "583";
    object      p;
}
// * * * * * * * * * * * * * * * * * * * * * * * * * * * * * * * * * * * * * //

dimensions      [0 2 -2 0 0 0 0];

internalField   nonuniform List<scalar> 
200
(
7.9622e-13
1.51117e-07
1.45724e-07
-5.27188e-09
-1.26285e-10
1.509e-07
1.45855e-07
-5.05614e-09
1.44416e-10
1.50122e-07
1.45586e-07
-4.27982e-09
9.32897e-10
1.4885e-07
1.44798e-07
-3.0098e-09
1.85927e-09
1.47701e-07
1.43872e-07
-1.86256e-09
2.71949e-09
1.46833e-07
1.43012e-07
-9.96288e-10
3.73857e-09
1.45413e-07
1.41994e-07
4.21567e-10
4.65092e-09
1.43514e-07
1.41081e-07
2.31868e-09
4.92628e-09
1.42012e-07
1.40806e-07
3.81755e-09
4.55051e-09
1.40989e-07
1.41182e-07
4.83845e-09
3.60794e-09
1.40359e-07
1.42124e-07
5.46569e-09
2.1512e-09
1.4002e-07
1.43581e-07
5.80174e-09
1.88511e-10
1.39873e-07
1.45543e-07
5.94619e-09
-2.3403e-09
1.39857e-07
1.48072e-07
5.9596e-09
-5.55455e-09
1.40013e-07
1.51286e-07
5.80099e-09
-9.13936e-09
1.40462e-07
1.54871e-07
5.34867e-09
-1.25475e-08
1.41277e-07
1.58279e-07
4.5313e-09
-1.50129e-08
1.41707e-07
1.60744e-07
4.09886e-09
-1.64137e-08
1.4154e-07
1.62145e-07
4.26395e-09
-1.75797e-08
1.41537e-07
1.63311e-07
4.26338e-09
-1.89163e-08
1.41638e-07
1.64647e-07
4.16065e-09
-2.07851e-08
1.41137e-07
1.66516e-07
4.65844e-09
-2.42507e-08
1.3957e-07
1.69981e-07
6.2236e-09
-3.05622e-08
1.37556e-07
1.76292e-07
8.23611e-09
-3.80117e-08
1.36596e-07
1.83742e-07
9.19378e-09
-3.9523e-08
1.36798e-07
1.85253e-07
8.98871e-09
-3.35924e-08
1.35692e-07
1.79322e-07
1.00929e-08
-2.43764e-08
1.31472e-07
1.70106e-07
1.43119e-08
-1.15505e-08
1.24747e-07
1.5728e-07
2.10358e-08
3.19374e-09
1.16961e-07
1.42537e-07
2.88202e-08
1.50852e-08
1.09571e-07
1.30646e-07
3.62096e-08
2.38383e-08
1.02814e-07
1.21893e-07
4.29651e-08
3.21797e-08
9.60882e-08
1.13553e-07
4.96909e-08
4.21842e-08
8.93734e-08
1.0355e-07
5.64047e-08
5.67902e-08
8.3588e-08
8.89474e-08
6.21907e-08
7.51255e-08
8.04599e-08
7.06168e-08
6.53196e-08
9.19443e-08
7.78193e-08
5.38024e-08
6.79621e-08
1.06182e-07
7.34108e-08
3.957e-08
7.23706e-08
1.19744e-07
6.84806e-08
2.60118e-08
7.73009e-08
1.32994e-07
6.3542e-08
1.27659e-08
8.22373e-08
1.4663e-07
5.96094e-08
-8.67066e-10
8.61681e-08
1.62539e-07
5.91805e-08
-1.67735e-08
8.6594e-08
1.80285e-07
6.17604e-08
-3.4519e-08
8.40131e-08
1.97702e-07
6.4806e-08
-5.19353e-08
8.09652e-08
2.13409e-07
6.71964e-08
-6.7642e-08
7.85725e-08
2.25129e-07
6.69647e-08
-7.93617e-08
7.88e-08
2.33172e-07
6.47288e-08
-8.7405e-08
8.10317e-08
2.39404e-07
6.27448e-08
-9.36379e-08
8.30127e-08
2.43956e-07
6.13226e-08
-9.81912e-08
8.44334e-08
2.46871e-07
6.01867e-08
-1.01108e-07
8.55687e-08
)
;

boundaryField
{
    inlet
    {
        type            cyclic;
    }
    outlet
    {
        type            cyclic;
    }
    fixedWalls-bottom
    {
        type            zeroGradient;
    }
    fixedWalls-top
    {
        type            symmetry;
    }
    frontAndBack
    {
        type            empty;
    }
}


// ************************************************************************* //
