/*--------------------------------*- C++ -*----------------------------------*\
  =========                 |
  \\      /  F ield         | OpenFOAM: The Open Source CFD Toolbox
   \\    /   O peration     | Website:  https://openfoam.org
    \\  /    A nd           | Version:  10
     \\/     M anipulation  |
\*---------------------------------------------------------------------------*/
FoamFile
{
    format      ascii;
    class       surfaceScalarField;
    location    "583";
    object      phi;
}
// * * * * * * * * * * * * * * * * * * * * * * * * * * * * * * * * * * * * * //

dimensions      [0 3 -1 0 0 0 0];

internalField   nonuniform List<scalar> 
346
(
0.00226498
-8.17878e-09
0.00226498
3.58545e-09
0.00226497
8.09238e-09
-3.57348e-09
0.00664235
-2.70847e-08
0.00664235
8.7776e-09
0.00664233
2.70122e-08
-8.75306e-09
0.00981316
-3.87805e-08
0.00981316
8.70061e-09
0.00981315
3.87334e-08
-8.67011e-09
0.0119461
-4.24467e-08
0.0119461
6.84293e-09
0.0119461
4.23998e-08
-6.80905e-09
0.0135711
-4.27058e-08
0.0135711
7.96958e-09
0.0135711
4.26701e-08
-7.93452e-09
0.0149303
-4.16471e-08
0.0149303
1.42902e-08
0.0149303
4.161e-08
-1.42544e-08
0.0161429
-3.72453e-08
0.0161429
2.06704e-08
0.0161429
3.72139e-08
-2.06348e-08
0.0172721
-2.94157e-08
0.0172721
2.50173e-08
0.0172722
2.93832e-08
-2.49819e-08
0.0183529
-2.04053e-08
0.0183529
2.89331e-08
0.0183529
2.03761e-08
-2.88987e-08
0.0194057
-1.13396e-08
0.0194057
3.27604e-08
0.0194057
1.13098e-08
-3.27265e-08
0.0204444
-2.91607e-09
0.0204444
3.65145e-08
0.0204444
2.88849e-09
-3.6482e-08
0.0214785
4.64454e-09
0.0214785
3.99571e-08
0.0214785
-4.6723e-09
-3.99251e-08
0.022515
1.10405e-08
0.022515
4.26684e-08
0.022515
-1.10662e-08
-4.26383e-08
0.0235595
1.59297e-08
0.0235595
4.41922e-08
0.0235595
-1.59554e-08
-4.41625e-08
0.024616
1.82222e-08
0.024616
4.44389e-08
0.024616
-1.82458e-08
-4.44113e-08
0.0256881
1.76616e-08
0.0256881
4.38371e-08
0.0256881
-1.76852e-08
-4.38096e-08
0.0267787
1.47478e-08
0.0267787
4.384e-08
0.0267787
-1.4769e-08
-4.38152e-08
0.0278904
1.1715e-08
0.0278904
4.41805e-08
0.0278904
-1.17364e-08
-4.41555e-08
0.0290258
1.09533e-08
0.0290258
4.40961e-08
0.0290258
-1.09721e-08
-4.40741e-08
0.0301869
1.26417e-08
0.0301869
4.44803e-08
0.0301869
-1.26608e-08
-4.44578e-08
0.0313754
1.63839e-08
0.0313754
4.53503e-08
0.0313754
-1.64e-08
-4.53312e-08
0.0325925
2.12968e-08
0.0325925
4.48887e-08
0.0325926
-2.13136e-08
-4.48689e-08
0.0338392
2.45565e-08
0.0338392
3.9975e-08
0.0338392
-2.457e-08
-3.99587e-08
0.0351161
1.99176e-08
0.0351161
2.88578e-08
0.0351161
-1.99317e-08
-2.88407e-08
0.0364241
1.59504e-09
0.0364241
1.42943e-08
0.0364241
-1.60626e-09
-1.42803e-08
0.0377644
-2.23329e-08
0.0377644
1.78783e-09
0.0377644
2.23211e-08
-1.77316e-09
0.0391387
-4.19776e-08
0.0391387
-6.83955e-09
0.0391387
4.19683e-08
6.8515e-09
0.0405485
-5.67704e-08
0.0405485
-1.29402e-08
0.0405485
5.67611e-08
1.29524e-08
0.0419949
-6.26199e-08
0.0419949
-1.76384e-08
0.0419949
6.26112e-08
1.76497e-08
0.0434788
-5.76879e-08
0.0434789
-2.15646e-08
0.0434789
5.76798e-08
2.15754e-08
0.0450014
-4.92013e-08
0.0450014
-2.47885e-08
0.0450014
4.91923e-08
2.47998e-08
0.0465634
-4.36215e-08
0.0465634
-2.81079e-08
0.0465634
4.36145e-08
2.81174e-08
0.0481657
-4.22936e-08
0.0481657
-3.30152e-08
0.0481657
4.22827e-08
3.3028e-08
0.0498091
-4.49572e-08
0.0498091
-3.96438e-08
0.0498091
4.49496e-08
3.96534e-08
0.0514944
-4.60894e-08
0.0514944
-4.63648e-08
0.0514944
4.60757e-08
4.63799e-08
0.0532221
-4.09141e-08
0.0532221
-4.77977e-08
0.0532221
4.09054e-08
4.78081e-08
0.0549929
-3.34786e-08
0.0549929
-4.42817e-08
0.0549929
3.34614e-08
4.43e-08
0.0568073
-2.74171e-08
0.0568072
-4.11964e-08
0.0568073
2.74063e-08
4.12084e-08
0.0586655
-2.23122e-08
0.0586655
-4.03603e-08
0.0586655
2.2291e-08
4.03823e-08
0.0605678
-1.86383e-08
0.0605678
-4.32113e-08
0.0605678
1.86243e-08
4.32261e-08
0.0625145
-1.71468e-08
0.0625145
-4.99607e-08
0.0625145
1.71232e-08
4.99849e-08
0.0645056
-1.60359e-08
0.0645056
-5.51121e-08
0.0645056
1.60198e-08
5.51288e-08
0.0665408
-1.40515e-08
0.0665408
-5.40788e-08
0.0665408
1.40277e-08
5.41028e-08
0.0686198
-1.16576e-08
0.0686198
-4.70823e-08
0.0686198
1.16403e-08
4.70999e-08
0.0707422
-8.12897e-09
0.0707422
-3.50238e-08
0.0707422
8.11003e-09
3.50429e-08
0.0729072
-5.61363e-09
0.0729072
-2.29904e-08
0.0729072
5.60018e-09
2.3004e-08
0.0751136
-5.01109e-09
0.0751136
-1.4632e-08
0.0751136
5.00128e-09
1.46418e-08
0.0773601
-4.40964e-09
0.0773601
-8.64871e-09
0.0773601
4.40586e-09
8.6525e-09
0.0796445
-2.94675e-09
0.0796445
-3.75988e-09
0.0796445
2.9466e-09
3.76004e-09
0.0819644
0.0819644
0.0819644
)
;

boundaryField
{
    inlet
    {
        type            cyclic;
        value           nonuniform List<scalar> 
50
(
-0.0819645
-0.0796445
-0.0773601
-0.0751136
-0.0729072
-0.0707422
-0.0686198
-0.0665408
-0.0645056
-0.0625145
-0.0605678
-0.0586655
-0.0568073
-0.0549929
-0.0532221
-0.0514944
-0.0498091
-0.0481657
-0.0465634
-0.0450014
-0.0434789
-0.0419949
-0.0405485
-0.0391387
-0.0377644
-0.0364241
-0.0351161
-0.0338392
-0.0325926
-0.0313754
-0.0301869
-0.0290258
-0.0278904
-0.0267787
-0.0256881
-0.024616
-0.0235595
-0.022515
-0.0214785
-0.0204444
-0.0194057
-0.0183529
-0.0172722
-0.0161429
-0.0149303
-0.0135711
-0.0119461
-0.00981315
-0.00664233
-0.00226498
)
;
    }
    outlet
    {
        type            cyclic;
        value           nonuniform List<scalar> 
50
(
0.0819645
0.0796445
0.0773601
0.0751136
0.0729072
0.0707422
0.0686198
0.0665408
0.0645056
0.0625145
0.0605678
0.0586655
0.0568073
0.0549929
0.0532221
0.0514944
0.0498091
0.0481657
0.0465634
0.0450014
0.0434789
0.0419949
0.0405485
0.0391387
0.0377644
0.0364241
0.0351161
0.0338392
0.0325926
0.0313754
0.0301869
0.0290258
0.0278904
0.0267787
0.0256881
0.024616
0.0235595
0.022515
0.0214785
0.0204444
0.0194057
0.0183529
0.0172722
0.0161429
0.0149303
0.0135711
0.0119461
0.00981315
0.00664233
0.00226498
)
;
    }
    fixedWalls-bottom
    {
        type            calculated;
        value           uniform 0;
    }
    fixedWalls-top
    {
        type            symmetry;
        value           uniform 0;
    }
    frontAndBack
    {
        type            empty;
        value           nonuniform List<scalar> 0();
    }
}


// ************************************************************************* //
