/*--------------------------------*- C++ -*----------------------------------*\
  =========                 |
  \\      /  F ield         | OpenFOAM: The Open Source CFD Toolbox
   \\    /   O peration     | Website:  https://openfoam.org
    \\  /    A nd           | Version:  10
     \\/     M anipulation  |
\*---------------------------------------------------------------------------*/
FoamFile
{
    format      ascii;
    class       volSymmTensorField;
    location    "583";
    object      R;
}
// * * * * * * * * * * * * * * * * * * * * * * * * * * * * * * * * * * * * * //

dimensions      [0 2 -2 0 0 0 0];

internalField   nonuniform List<symmTensor> 
200
(
(3.62954e-05 -3.62656e-06 -0 3.62954e-05 -0 3.62954e-05)
(3.62949e-05 -3.62652e-06 -0 3.62949e-05 -0 3.62949e-05)
(3.62934e-05 -3.62635e-06 -0 3.62934e-05 -0 3.62934e-05)
(3.6293e-05 -3.6263e-06 -0 3.6293e-05 -0 3.6293e-05)
(0.000975653 -0.000353782 -0 0.000975653 -0 0.000975653)
(0.000975642 -0.000353776 -0 0.000975642 -0 0.000975642)
(0.000975604 -0.000353761 -0 0.000975603 -0 0.000975603)
(0.000975594 -0.000353758 -0 0.000975594 -0 0.000975594)
(0.00312761 -0.00145442 -0 0.00312761 -0 0.00312761)
(0.00312758 -0.0014544 -0 0.00312758 -0 0.00312758)
(0.00312749 -0.00145436 -0 0.00312749 -0 0.00312749)
(0.00312748 -0.00145435 -0 0.00312748 -0 0.00312748)
(0.00411442 -0.00191355 -0 0.00411442 -0 0.00411442)
(0.0041144 -0.00191354 -0 0.0041144 -0 0.0041144)
(0.0041143 -0.0019135 -0 0.0041143 -0 0.0041143)
(0.00411428 -0.00191349 -0 0.00411428 -0 0.00411428)
(0.00455823 -0.00211959 -0 0.00455823 -0 0.00455823)
(0.00455822 -0.00211958 -0 0.00455822 -0 0.00455822)
(0.00455813 -0.00211954 -0 0.00455813 -0 0.00455813)
(0.0045581 -0.00211953 -0 0.0045581 -0 0.0045581)
(0.00476904 -0.0022176 -0 0.00476904 -0 0.00476904)
(0.00476903 -0.0022176 -0 0.00476903 -0 0.00476903)
(0.00476897 -0.00221757 -0 0.00476897 -0 0.00476897)
(0.00476894 -0.00221756 -0 0.00476894 -0 0.00476894)
(0.00487083 -0.00226171 -0 0.00487083 -0 0.00487083)
(0.00487083 -0.00226168 -0 0.00487083 -0 0.00487083)
(0.00487078 -0.00226163 -0 0.00487078 -0 0.00487078)
(0.00487076 -0.00226163 -0 0.00487076 -0 0.00487076)
(0.00491538 -0.00227766 -0 0.00491538 -0 0.00491538)
(0.00491538 -0.00227765 -0 0.00491538 -0 0.00491538)
(0.00491535 -0.00227762 -0 0.00491535 -0 0.00491535)
(0.00491533 -0.00227762 -0 0.00491533 -0 0.00491533)
(0.00492601 -0.00228183 -0 0.00492601 -0 0.00492601)
(0.00492601 -0.00228182 -0 0.00492601 -0 0.00492601)
(0.00492599 -0.0022818 -0 0.00492599 -0 0.00492599)
(0.00492598 -0.00228181 -0 0.00492598 -0 0.00492598)
(0.00491419 -0.0022764 -0 0.00491419 -0 0.00491419)
(0.00491419 -0.0022764 -0 0.00491419 -0 0.00491419)
(0.00491418 -0.00227639 -0 0.00491418 -0 0.00491418)
(0.00491417 -0.0022764 -0 0.00491418 -0 0.00491418)
(0.00488661 -0.00226421 -0 0.00488661 -0 0.00488661)
(0.00488661 -0.00226421 -0 0.0048866 -0 0.0048866)
(0.0048866 -0.00226421 -0 0.0048866 -0 0.0048866)
(0.00488661 -0.00226423 -0 0.00488661 -0 0.00488661)
(0.00484741 -0.00224697 -0 0.0048474 -0 0.00484741)
(0.0048474 -0.00224698 -0 0.0048474 -0 0.0048474)
(0.0048474 -0.00224698 -0 0.0048474 -0 0.0048474)
(0.00484741 -0.00224701 -0 0.00484741 -0 0.00484741)
(0.00479926 -0.00222577 -0 0.00479926 -0 0.00479926)
(0.00479925 -0.00222579 -0 0.00479925 -0 0.00479925)
(0.00479926 -0.0022258 -0 0.00479926 -0 0.00479926)
(0.00479926 -0.00222583 -0 0.00479927 -0 0.00479927)
(0.00474398 -0.00220134 -0 0.00474398 -0 0.00474398)
(0.00474397 -0.00220136 -0 0.00474397 -0 0.00474397)
(0.00474398 -0.00220137 -0 0.00474398 -0 0.00474398)
(0.00474399 -0.0022014 -0 0.00474399 -0 0.00474399)
(0.00468284 -0.00217416 -0 0.00468284 -0 0.00468284)
(0.00468282 -0.00217418 -0 0.00468282 -0 0.00468282)
(0.00468284 -0.0021742 -0 0.00468284 -0 0.00468284)
(0.00468285 -0.00217423 -0 0.00468285 -0 0.00468285)
(0.00461675 -0.00214458 -0 0.00461675 -0 0.00461675)
(0.00461673 -0.00214462 -0 0.00461673 -0 0.00461673)
(0.00461675 -0.00214462 -0 0.00461675 -0 0.00461675)
(0.00461675 -0.00214466 -0 0.00461675 -0 0.00461675)
(0.00454638 -0.00211344 -0 0.00454638 -0 0.00454638)
(0.00454636 -0.00211347 -0 0.00454636 -0 0.00454636)
(0.00454638 -0.00211348 -0 0.00454638 -0 0.00454638)
(0.00454638 -0.00211352 -0 0.00454638 -0 0.00454638)
(0.00447217 -0.00207956 -0 0.00447217 -0 0.00447217)
(0.00447214 -0.00207955 -0 0.00447214 -0 0.00447214)
(0.00447217 -0.00207956 -0 0.00447217 -0 0.00447217)
(0.00447217 -0.00207956 -0 0.00447217 -0 0.00447217)
(0.00439434 -0.00204337 -0 0.00439434 -0 0.00439434)
(0.00439431 -0.00204336 -0 0.00439431 -0 0.00439431)
(0.00439434 -0.00204337 -0 0.00439434 -0 0.00439434)
(0.00439433 -0.00204337 -0 0.00439433 -0 0.00439433)
(0.00431304 -0.00200556 -0 0.00431304 -0 0.00431304)
(0.00431302 -0.00200555 -0 0.00431302 -0 0.00431302)
(0.00431304 -0.00200556 -0 0.00431304 -0 0.00431304)
(0.00431304 -0.00200556 -0 0.00431304 -0 0.00431304)
(0.00422843 -0.00196622 -0 0.00422842 -0 0.00422843)
(0.00422841 -0.00196621 -0 0.00422841 -0 0.00422841)
(0.00422842 -0.00196622 -0 0.00422843 -0 0.00422843)
(0.00422843 -0.00196622 -0 0.00422843 -0 0.00422843)
(0.00414072 -0.00192544 -0 0.00414072 -0 0.00414072)
(0.00414071 -0.00192543 -0 0.00414072 -0 0.00414071)
(0.00414073 -0.00192544 -0 0.00414073 -0 0.00414073)
(0.00414072 -0.00192543 -0 0.00414072 -0 0.00414072)
(0.00405028 -0.00188338 -0 0.00405028 -0 0.00405028)
(0.00405027 -0.00188338 -0 0.00405028 -0 0.00405028)
(0.00405029 -0.00188338 -0 0.00405029 -0 0.00405029)
(0.00405027 -0.00188337 -0 0.00405027 -0 0.00405027)
(0.00395754 -0.00184026 -0 0.00395754 -0 0.00395754)
(0.00395754 -0.00184026 -0 0.00395755 -0 0.00395754)
(0.00395755 -0.00184026 -0 0.00395755 -0 0.00395755)
(0.00395753 -0.00184025 -0 0.00395752 -0 0.00395753)
(0.00386299 -0.00179629 -0 0.003863 -0 0.00386299)
(0.00386299 -0.00179629 -0 0.003863 -0 0.003863)
(0.00386301 -0.0017963 -0 0.003863 -0 0.003863)
(0.00386299 -0.00179629 -0 0.00386297 -0 0.00386298)
(0.00376693 -0.00174974 -0 0.00376695 -0 0.00376694)
(0.00376694 -0.00174971 -0 0.00376695 -0 0.00376694)
(0.00376696 -0.00174969 -0 0.00376694 -0 0.00376695)
(0.00376693 -0.00174949 -0 0.00376692 -0 0.00376692)
(0.00366949 -0.00170015 -0 0.00366951 -0 0.0036695)
(0.0036695 -0.00170007 -0 0.0036695 -0 0.0036695)
(0.00366952 -0.00170002 -0 0.0036695 -0 0.00366951)
(0.00366947 -0.00169985 -0 0.00366946 -0 0.00366947)
(0.0035708 -0.00164984 -0 0.00357081 -0 0.00357081)
(0.00357081 -0.00164974 -0 0.00357081 -0 0.00357081)
(0.00357082 -0.00164966 -0 0.00357081 -0 0.00357081)
(0.00357077 -0.00164949 -0 0.00357077 -0 0.00357077)
(0.00347109 -0.00159784 -0 0.00347109 -0 0.00347109)
(0.00347109 -0.00159781 -0 0.0034711 -0 0.0034711)
(0.0034711 -0.00159763 -0 0.00347109 -0 0.0034711)
(0.00347105 -0.00159746 -0 0.00347104 -0 0.00347105)
(0.0033706 -0.00154414 -0 0.00337059 -0 0.00337059)
(0.0033706 -0.00154409 -0 0.00337061 -0 0.0033706)
(0.0033706 -0.00154393 -0 0.0033706 -0 0.0033706)
(0.00337055 -0.00154375 -0 0.00337054 -0 0.00337055)
(0.00326959 -0.00148871 -0 0.00326958 -0 0.00326958)
(0.00326959 -0.0014886 -0 0.0032696 -0 0.0032696)
(0.00326959 -0.00148853 -0 0.0032696 -0 0.00326959)
(0.00326954 -0.0014883 -0 0.00326953 -0 0.00326954)
(0.00316837 -0.00143151 -0 0.00316836 -0 0.00316837)
(0.00316837 -0.00143143 -0 0.00316838 -0 0.00316837)
(0.00316837 -0.00143134 -0 0.00316838 -0 0.00316837)
(0.00316832 -0.00143109 -0 0.00316832 -0 0.00316832)
(0.00306727 -0.00137251 -0 0.00306727 -0 0.00306727)
(0.00306727 -0.00137244 -0 0.00306728 -0 0.00306727)
(0.00306728 -0.00137237 -0 0.00306728 -0 0.00306728)
(0.00306722 -0.00137209 -0 0.00306722 -0 0.00306722)
(0.00296666 -0.0013117 -0 0.00296666 -0 0.00296666)
(0.00296666 -0.00131161 -0 0.00296667 -0 0.00296667)
(0.00296667 -0.00131155 -0 0.00296667 -0 0.00296667)
(0.00296662 -0.00131126 -0 0.00296661 -0 0.00296661)
(0.00286695 -0.00124902 -0 0.00286695 -0 0.00286695)
(0.00286695 -0.00124898 -0 0.00286696 -0 0.00286696)
(0.00286696 -0.00124885 -0 0.00286696 -0 0.00286696)
(0.0028669 -0.00124855 -0 0.0028669 -0 0.0028669)
(0.00276859 -0.00118442 -0 0.00276859 -0 0.00276859)
(0.00276859 -0.00118436 -0 0.00276859 -0 0.00276859)
(0.00276858 -0.00118432 -0 0.00276858 -0 0.00276858)
(0.00276852 -0.00118392 -0 0.00276852 -0 0.00276852)
(0.00267203 -0.00111792 -0 0.00267202 -0 0.00267203)
(0.00267202 -0.00111773 -0 0.00267202 -0 0.00267202)
(0.00267202 -0.00111778 -0 0.00267202 -0 0.00267202)
(0.00267196 -0.00111735 -0 0.00267196 -0 0.00267196)
(0.0025778 -0.00104933 -0 0.00257779 -0 0.00257779)
(0.0025778 -0.00104917 -0 0.00257779 -0 0.00257779)
(0.0025778 -0.00104923 -0 0.0025778 -0 0.0025778)
(0.00257774 -0.00104879 -0 0.00257774 -0 0.00257774)
(0.00248647 -0.0009787 -0 0.00248647 -0 0.00248647)
(0.00248647 -0.000978549 -0 0.00248647 -0 0.00248647)
(0.00248648 -0.000978617 -0 0.00248648 -0 0.00248648)
(0.00248642 -0.000978187 -0 0.00248642 -0 0.00248642)
(0.00239865 -0.000905961 -0 0.00239865 -0 0.00239865)
(0.00239866 -0.00090583 -0 0.00239866 -0 0.00239866)
(0.00239866 -0.000905893 -0 0.00239866 -0 0.00239866)
(0.00239861 -0.000905476 -0 0.0023986 -0 0.0023986)
(0.00231498 -0.000831061 -0 0.00231497 -0 0.00231497)
(0.00231499 -0.000830957 -0 0.002315 -0 0.00231499)
(0.00231498 -0.000830998 -0 0.00231498 -0 0.00231498)
(0.00231493 -0.000830605 -0 0.00231492 -0 0.00231493)
(0.00223611 -0.000753891 -0 0.00223611 -0 0.00223611)
(0.00223611 -0.000753903 -0 0.00223612 -0 0.00223612)
(0.00223612 -0.000753879 -0 0.00223612 -0 0.00223612)
(0.00223607 -0.000753514 -0 0.00223606 -0 0.00223607)
(0.00216276 -0.000674505 -0 0.00216276 -0 0.00216276)
(0.00216277 -0.000674505 -0 0.00216276 -0 0.00216276)
(0.00216277 -0.000674483 -0 0.00216277 -0 0.00216277)
(0.00216272 -0.000674147 -0 0.00216272 -0 0.00216272)
(0.00209566 -0.000592767 -0 0.00209566 -0 0.00209566)
(0.00209567 -0.000592764 -0 0.00209567 -0 0.00209567)
(0.00209568 -0.000592754 -0 0.00209568 -0 0.00209568)
(0.00209562 -0.000592436 -0 0.00209563 -0 0.00209563)
(0.00203558 -0.00050862 -0 0.00203558 -0 0.00203558)
(0.00203559 -0.000508606 -0 0.00203558 -0 0.00203559)
(0.00203559 -0.000508618 -0 0.0020356 -0 0.0020356)
(0.00203554 -0.000508319 -0 0.00203555 -0 0.00203555)
(0.0019833 -0.000422031 -0 0.0019833 -0 0.0019833)
(0.00198331 -0.000421923 -0 0.0019833 -0 0.00198331)
(0.00198332 -0.000422003 -0 0.00198332 -0 0.00198332)
(0.00198326 -0.000421729 -0 0.00198327 -0 0.00198327)
(0.00193965 -0.000332841 -0 0.00193965 -0 0.00193965)
(0.00193965 -0.000332749 -0 0.00193965 -0 0.00193965)
(0.00193966 -0.000332823 -0 0.00193966 -0 0.00193966)
(0.00193961 -0.000332594 -0 0.00193962 -0 0.00193962)
(0.00190549 -0.000241034 -0 0.00190549 -0 0.00190549)
(0.00190549 -0.00024095 -0 0.00190548 -0 0.00190549)
(0.00190549 -0.000241016 -0 0.0019055 -0 0.00190549)
(0.00190545 -0.000240841 -0 0.00190546 -0 0.00190546)
(0.00188172 -0.000146524 -0 0.00188172 -0 0.00188172)
(0.00188172 -0.000146465 -0 0.00188171 -0 0.00188172)
(0.00188172 -0.000146512 -0 0.00188173 -0 0.00188172)
(0.00188168 -0.000146401 -0 0.00188169 -0 0.00188169)
(0.00186932 -4.92923e-05 -0 0.00186931 -0 0.00186931)
(0.00186931 -4.92695e-05 -0 0.0018693 -0 0.0018693)
(0.00186931 -4.92848e-05 -0 0.00186931 -0 0.00186931)
(0.00186927 -4.92481e-05 -0 0.00186928 -0 0.00186928)
)
;

boundaryField
{
    inlet
    {
        type            cyclic;
    }
    outlet
    {
        type            cyclic;
    }
    fixedWalls-bottom
    {
        type            kqRWallFunction;
        value           nonuniform List<symmTensor> 4((3.62954e-05 -0 -0 3.62954e-05 -0 3.62954e-05) (3.62949e-05 -0 -0 3.62949e-05 -0 3.62949e-05) (3.62934e-05 -0 -0 3.62934e-05 -0 3.62934e-05) (3.6293e-05 -0 -0 3.6293e-05 -0 3.6293e-05));
    }
    fixedWalls-top
    {
        type            symmetry;
    }
    frontAndBack
    {
        type            empty;
    }
}


// ************************************************************************* //
