/*--------------------------------*- C++ -*----------------------------------*\
  =========                 |
  \\      /  F ield         | OpenFOAM: The Open Source CFD Toolbox
   \\    /   O peration     | Website:  https://openfoam.org
    \\  /    A nd           | Version:  10
     \\/     M anipulation  |
\*---------------------------------------------------------------------------*/
FoamFile
{
    format      ascii;
    class       volVectorField;
    location    "583";
    object      U;
}
// * * * * * * * * * * * * * * * * * * * * * * * * * * * * * * * * * * * * * //

dimensions      [0 1 -1 0 0 0 0];

internalField   nonuniform List<vector> 
200
(
(0.122927 -3.16297e-09 0)
(0.122927 3.60401e-09 0)
(0.122926 3.05722e-09 0)
(0.122926 -3.60154e-09 0)
(0.350441 -1.99766e-08 0)
(0.350442 7.71692e-09 0)
(0.350441 1.99407e-08 0)
(0.35044 -7.69598e-09 0)
(0.503287 -3.33506e-08 0)
(0.503287 6.56972e-09 0)
(0.503287 3.32836e-08 0)
(0.503286 -6.54351e-09 0)
(0.595588 -4.07883e-08 0)
(0.595589 6.16884e-09 0)
(0.595589 4.07402e-08 0)
(0.595588 -6.13718e-09 0)
(0.65773 -4.316e-08 0)
(0.65773 7.1687e-09 0)
(0.65773 4.31189e-08 0)
(0.65773 -7.1348e-09 0)
(0.703419 -4.29983e-08 0)
(0.703418 1.17075e-08 0)
(0.703418 4.29613e-08 0)
(0.703419 -1.16726e-08 0)
(0.739332 -3.94955e-08 0)
(0.739332 1.63858e-08 0)
(0.739332 3.9461e-08 0)
(0.739332 -1.63507e-08 0)
(0.768986 -3.3797e-08 0)
(0.768985 2.2916e-08 0)
(0.768985 3.37646e-08 0)
(0.768986 -2.2881e-08 0)
(0.794309 -2.51555e-08 0)
(0.794309 2.72001e-08 0)
(0.794309 2.51245e-08 0)
(0.79431 -2.71656e-08 0)
(0.816448 -1.58353e-08 0)
(0.816447 3.10169e-08 0)
(0.816447 1.58056e-08 0)
(0.816448 -3.0983e-08 0)
(0.836152 -6.93918e-09 0)
(0.836152 3.48103e-08 0)
(0.836152 6.91035e-09 0)
(0.836153 -3.47774e-08 0)
(0.85394 1.13598e-09 0)
(0.85394 3.84757e-08 0)
(0.85394 -1.16384e-09 0)
(0.853941 -3.84436e-08 0)
(0.870181 8.23546e-09 0)
(0.870181 4.15959e-08 0)
(0.870181 -8.26235e-09 0)
(0.870182 -4.1565e-08 0)
(0.885147 1.40033e-08 0)
(0.885147 4.37155e-08 0)
(0.885147 -1.40292e-08 0)
(0.885147 -4.36857e-08 0)
(0.899043 1.74234e-08 0)
(0.899043 4.45311e-08 0)
(0.899043 -1.74481e-08 0)
(0.899043 -4.45026e-08 0)
(0.912028 1.83785e-08 0)
(0.912028 4.42838e-08 0)
(0.912028 -1.84021e-08 0)
(0.912028 -4.42563e-08 0)
(0.924227 1.61108e-08 0)
(0.924227 4.42739e-08 0)
(0.924227 -1.6133e-08 0)
(0.924227 -4.42478e-08 0)
(0.935745 1.33396e-08 0)
(0.935744 4.36472e-08 0)
(0.935745 -1.33606e-08 0)
(0.935744 -4.36223e-08 0)
(0.946672 1.10453e-08 0)
(0.946672 4.39093e-08 0)
(0.946672 -1.1065e-08 0)
(0.946672 -4.38857e-08 0)
(0.957078 1.13247e-08 0)
(0.957078 4.43527e-08 0)
(0.957078 -1.13434e-08 0)
(0.957078 -4.43304e-08 0)
(0.967011 1.43266e-08 0)
(0.967011 4.52962e-08 0)
(0.967011 -1.43441e-08 0)
(0.967011 -4.52754e-08 0)
(0.976502 1.94619e-08 0)
(0.976502 4.58204e-08 0)
(0.976502 -1.94784e-08 0)
(0.976502 -4.5801e-08 0)
(0.985571 2.42695e-08 0)
(0.985571 4.32333e-08 0)
(0.985571 -2.42848e-08 0)
(0.985571 -4.32152e-08 0)
(0.994231 2.30518e-08 0)
(0.994231 3.51413e-08 0)
(0.994231 -2.30657e-08 0)
(0.994231 -3.51245e-08 0)
(1.0025 1.0228e-08 0)
(1.0025 2.2341e-08 0)
(1.0025 -1.02406e-08 0)
(1.0025 -2.23259e-08 0)
(1.01039 -8.2431e-09 0)
(1.01039 8.33776e-09 0)
(1.01039 8.23143e-09 0)
(1.01039 -8.32386e-09 0)
(1.01795 -3.27641e-08 0)
(1.01795 -3.41976e-09 0)
(1.01795 3.27533e-08 0)
(1.01795 3.43319e-09 0)
(1.0252 -5.15684e-08 0)
(1.0252 -1.10162e-08 0)
(1.0252 5.15589e-08 0)
(1.0252 1.10283e-08 0)
(1.03215 -6.05009e-08 0)
(1.03215 -1.63461e-08 0)
(1.03215 6.04917e-08 0)
(1.03215 1.63579e-08 0)
(1.03881 -6.068e-08 0)
(1.03881 -2.03093e-08 0)
(1.03881 6.06713e-08 0)
(1.03881 2.03204e-08 0)
(1.0452 -5.45162e-08 0)
(1.0452 -2.3007e-08 0)
(1.0452 5.45076e-08 0)
(1.0452 2.3018e-08 0)
(1.05131 -4.61697e-08 0)
(1.05131 -2.60877e-08 0)
(1.05131 4.61618e-08 0)
(1.05131 2.60981e-08 0)
(1.05715 -4.27443e-08 0)
(1.05715 -3.02647e-08 0)
(1.05715 4.27358e-08 0)
(1.05715 3.0276e-08 0)
(1.06272 -4.41679e-08 0)
(1.06272 -3.6659e-08 0)
(1.06272 4.41596e-08 0)
(1.06272 3.66706e-08 0)
(1.06803 -4.4833e-08 0)
(1.06803 -4.40009e-08 0)
(1.06803 4.48236e-08 0)
(1.06803 4.4014e-08 0)
(1.07307 -4.29577e-08 0)
(1.07307 -4.66581e-08 0)
(1.07308 4.29475e-08 0)
(1.07307 4.66714e-08 0)
(1.07785 -3.80684e-08 0)
(1.07785 -4.68854e-08 0)
(1.07785 3.80563e-08 0)
(1.07785 4.69001e-08 0)
(1.08235 -3.04795e-08 0)
(1.08235 -4.26869e-08 0)
(1.08235 3.04655e-08 0)
(1.08235 4.27018e-08 0)
(1.08657 -2.46257e-08 0)
(1.08657 -4.01349e-08 0)
(1.08657 2.4609e-08 0)
(1.08657 4.01512e-08 0)
(1.09052 -2.04823e-08 0)
(1.09052 -4.14904e-08 0)
(1.09052 2.04633e-08 0)
(1.09052 4.1508e-08 0)
(1.09417 -1.80446e-08 0)
(1.09417 -4.71859e-08 0)
(1.09417 1.80246e-08 0)
(1.09417 4.72046e-08 0)
(1.09752 -1.56814e-08 0)
(1.09752 -5.24244e-08 0)
(1.09752 1.56607e-08 0)
(1.09752 5.24442e-08 0)
(1.10057 -1.46588e-08 0)
(1.10057 -5.56549e-08 0)
(1.10057 1.46388e-08 0)
(1.10057 5.56756e-08 0)
(1.1033 -1.23617e-08 0)
(1.1033 -5.14044e-08 0)
(1.1033 1.23417e-08 0)
(1.1033 5.1426e-08 0)
(1.10569 -9.164e-09 0)
(1.10569 -4.0967e-08 0)
(1.10569 9.14653e-09 0)
(1.10569 4.09856e-08 0)
(1.10774 -7.48722e-09 0)
(1.10774 -2.9466e-08 0)
(1.10774 7.47145e-09 0)
(1.10774 2.94829e-08 0)
(1.10943 -5.43197e-09 0)
(1.10943 -1.84317e-08 0)
(1.10943 5.42055e-09 0)
(1.10943 1.84439e-08 0)
(1.11074 -4.79981e-09 0)
(1.11074 -1.10574e-08 0)
(1.11074 4.79303e-09 0)
(1.11074 1.10644e-08 0)
(1.11164 -4.08824e-09 0)
(1.11164 -5.81978e-09 0)
(1.11164 4.08546e-09 0)
(1.11164 5.82034e-09 0)
(1.11211 -1.75003e-09 0)
(1.11211 -1.93465e-09 0)
(1.11211 1.75016e-09 0)
(1.11211 1.93554e-09 0)
)
;

boundaryField
{
    inlet
    {
        type            cyclic;
    }
    outlet
    {
        type            cyclic;
    }
    fixedWalls-bottom
    {
        type            noSlip;
    }
    fixedWalls-top
    {
        type            symmetry;
    }
    frontAndBack
    {
        type            empty;
    }
}


// ************************************************************************* //
