/*--------------------------------*- C++ -*----------------------------------*\
  =========                 |
  \\      /  F ield         | OpenFOAM: The Open Source CFD Toolbox
   \\    /   O peration     | Website:  https://openfoam.org
    \\  /    A nd           | Version:  10
     \\/     M anipulation  |
\*---------------------------------------------------------------------------*/
FoamFile
{
    format      ascii;
    class       volScalarField;
    location    "180";
    object      k;
}
// * * * * * * * * * * * * * * * * * * * * * * * * * * * * * * * * * * * * * //

dimensions      [0 2 -2 0 0 0 0];

internalField   nonuniform List<scalar> 
200
(
1.94812e-08
1.94795e-08
1.94617e-08
1.94512e-08
5.88723e-07
5.88671e-07
5.88134e-07
5.87818e-07
4.26144e-06
4.26107e-06
4.25718e-06
4.25489e-06
1.58807e-05
1.58793e-05
1.58648e-05
1.58563e-05
4.20928e-05
4.20887e-05
4.20499e-05
4.20276e-05
9.10957e-05
9.10854e-05
9.10008e-05
9.09531e-05
0.000172234
0.000172211
0.000172049
0.000171961
0.000295077
0.000295029
0.000294749
0.000294604
0.000467741
0.000467653
0.000467207
0.000466988
0.000694575
0.000694436
0.000693779
0.000693476
0.000973879
0.000973695
0.0009728
0.000972412
0.00129678
0.0012966
0.00129547
0.00129503
0.00164821
0.00164811
0.00164681
0.00164637
0.00200975
0.00200983
0.00200846
0.00200815
0.00236353
0.00236382
0.00236258
0.0023625
0.0026995
0.00269981
0.00269883
0.00269897
0.00301017
0.00301036
0.0030097
0.00301038
0.00328984
0.00328999
0.00328963
0.00329098
0.0035354
0.00353516
0.00353517
0.00353742
0.0037454
0.00374436
0.00374476
0.0037482
0.00391975
0.00391745
0.00391826
0.00392316
0.00405908
0.00405537
0.00405637
0.00406296
0.00416417
0.004159
0.00416013
0.0041686
0.00423483
0.00422827
0.00422966
0.00424046
0.0042729
0.00426513
0.00426596
0.00427883
0.00428177
0.00427306
0.0042731
0.00428776
0.00426352
0.00425407
0.00425379
0.00426946
0.00422004
0.00421095
0.00420981
0.00422597
0.00415399
0.00414417
0.00414309
0.00415906
0.0040656
0.00405504
0.00405488
0.00407041
0.00395656
0.00394597
0.00394591
0.00396141
0.00382838
0.00381845
0.00381805
0.00383354
0.00368255
0.00367429
0.00367352
0.00368847
0.00352063
0.00351495
0.0035144
0.00352794
0.0033446
0.00334268
0.00334056
0.00335364
0.00315802
0.00315822
0.00315515
0.00316697
0.0029607
0.00296185
0.00295852
0.0029691
0.00275379
0.00275528
0.00275181
0.00276125
0.00253842
0.00253993
0.00253648
0.00254474
0.00231585
0.00231724
0.0023141
0.00232104
0.00208796
0.00208914
0.00208663
0.00209217
0.00185701
0.00185794
0.00185624
0.00186042
0.00162575
0.00162636
0.00162544
0.00162837
0.00139828
0.00139838
0.00139821
0.00139989
0.00117944
0.00117937
0.00117926
0.00118048
0.000976442
0.0009763
0.000976329
0.000977135
0.000797787
0.000797715
0.000797712
0.000798282
0.000652417
0.000652328
0.000652271
0.000652856
0.000548843
0.00054843
0.000548591
0.000549284
0.000493827
0.000492265
0.000493827
0.000494799
)
;

boundaryField
{
    inlet
    {
        type            cyclic;
    }
    outlet
    {
        type            cyclic;
    }
    fixedWalls-bottom
    {
        type            kqRWallFunction;
        value           nonuniform List<scalar> 4(1.94812e-08 1.94795e-08 1.94617e-08 1.94512e-08);
    }
    fixedWalls-top
    {
        type            symmetry;
    }
    frontAndBack
    {
        type            empty;
    }
}


// ************************************************************************* //
