/*--------------------------------*- C++ -*----------------------------------*\
  =========                 |
  \\      /  F ield         | OpenFOAM: The Open Source CFD Toolbox
   \\    /   O peration     | Website:  https://openfoam.org
    \\  /    A nd           | Version:  10
     \\/     M anipulation  |
\*---------------------------------------------------------------------------*/
FoamFile
{
    format      ascii;
    class       volScalarField;
    location    "180";
    object      nut;
}
// * * * * * * * * * * * * * * * * * * * * * * * * * * * * * * * * * * * * * //

dimensions      [0 2 -1 0 0 0 0];

internalField   nonuniform List<scalar> 
200
(
3.62347e-12
3.62316e-12
3.61985e-12
3.6179e-12
6.45635e-10
6.45576e-10
6.44986e-10
6.4464e-10
1.40752e-08
1.40739e-08
1.4061e-08
1.40534e-08
1.13089e-07
1.13078e-07
1.12974e-07
1.12913e-07
5.35044e-07
5.3498e-07
5.34481e-07
5.34199e-07
1.83235e-06
1.83203e-06
1.83027e-06
1.82934e-06
5.03522e-06
5.03377e-06
5.02874e-06
5.0263e-06
1.1748e-05
1.17426e-05
1.17301e-05
1.17248e-05
2.40654e-05
2.40484e-05
2.40207e-05
2.40109e-05
4.42218e-05
4.41789e-05
4.41234e-05
4.41072e-05
7.40134e-05
7.39256e-05
7.38245e-05
7.37995e-05
0.000114182
0.000114039
0.000113871
0.000113831
0.000164028
0.000163851
0.000163597
0.000163525
0.000221459
0.000221287
0.00022094
0.000220867
0.000275798
0.00027585
0.000275709
0.000275679
0.000330423
0.000330486
0.00033039
0.000330388
0.000386625
0.000386672
0.000386624
0.00038669
0.000443504
0.000443553
0.000443559
0.000443711
0.000500258
0.000500275
0.000500346
0.000500608
0.000556418
0.000556344
0.000556472
0.000556865
0.000612255
0.000612017
0.000612121
0.000612641
0.00066915
0.00066866
0.000668565
0.000669155
0.000728505
0.000727617
0.000727353
0.000728206
0.000777605
0.000776645
0.000780142
0.000784254
0.000814152
0.000812785
0.000815504
0.000822103
0.000846876
0.00084558
0.000846601
0.000856329
0.00087541
0.000874504
0.000875009
0.000886457
0.000898735
0.000901505
0.000899332
0.00091243
0.00092158
0.000920457
0.000920629
0.0009336
0.00093703
0.00093348
0.000939702
0.000949214
0.000947278
0.00094357
0.000950316
0.000960543
0.000952317
0.000948898
0.000953486
0.000967324
0.000952005
0.000950624
0.000952046
0.000969189
0.000945683
0.00094654
0.000951437
0.000965386
0.000932618
0.000944528
0.000938901
0.000959424
0.000920338
0.000933674
0.000927249
0.000948142
0.00090483
0.000918786
0.00091137
0.000932725
0.000885761
0.000899788
0.000890727
0.000912946
0.000862524
0.000876192
0.000865737
0.000888389
0.000834216
0.000847232
0.000836596
0.000858315
0.000799701
0.000811836
0.000802574
0.000821809
0.000757789
0.000768769
0.000762029
0.000777647
0.000707895
0.000716956
0.000713342
0.000724517
0.000652341
0.000655992
0.000657965
0.000661586
0.000585337
0.00058833
0.000590154
0.000592657
0.000513852
0.000516257
0.000517429
0.000519844
0.000443304
0.000445328
0.000445982
0.000448776
0.000380561
0.000382389
0.000383252
0.00038647
0.000333449
0.000334288
0.000337226
0.00034063
0.000306268
0.000301637
0.000315481
0.000319825
)
;

boundaryField
{
    inlet
    {
        type            cyclic;
    }
    outlet
    {
        type            cyclic;
    }
    fixedWalls-bottom
    {
        type            nutkWallFunction;
        Cmu             0.09;
        kappa           0.41;
        E               9.8;
        value           uniform 0;
    }
    fixedWalls-top
    {
        type            symmetry;
    }
    frontAndBack
    {
        type            empty;
    }
}


// ************************************************************************* //
