/*--------------------------------*- C++ -*----------------------------------*\
  =========                 |
  \\      /  F ield         | OpenFOAM: The Open Source CFD Toolbox
   \\    /   O peration     | Website:  https://openfoam.org
    \\  /    A nd           | Version:  10
     \\/     M anipulation  |
\*---------------------------------------------------------------------------*/
FoamFile
{
    format      ascii;
    class       volScalarField;
    location    "180";
    object      omega;
}
// * * * * * * * * * * * * * * * * * * * * * * * * * * * * * * * * * * * * * //

dimensions      [0 0 -1 0 0 0 0];

internalField   nonuniform List<scalar> 
200
(
5376.39
5376.39
5376.39
5376.39
911.851
911.855
911.855
911.855
302.763
302.765
302.765
302.765
140.427
140.428
140.429
140.429
78.6715
78.6735
78.6743
78.6739
49.7151
49.7183
49.7197
49.719
34.206
34.2111
34.2132
34.2123
25.1171
25.1247
25.1276
25.1265
19.4363
19.4463
19.4502
19.449
15.7066
15.7187
15.7236
15.7225
13.1581
13.1713
13.1772
13.1764
11.3572
11.3698
11.3767
11.3768
10.0484
10.0586
10.0663
10.068
9.07507
9.08249
9.09054
9.09211
8.33545
8.34014
8.347
8.3485
7.76014
7.76239
7.7675
7.76798
7.30155
7.30118
7.30401
7.30351
6.92609
6.92164
6.92229
6.92233
6.61103
6.60289
6.60062
6.60005
6.33718
6.32725
6.31973
6.31876
6.09091
6.0859
6.06763
6.06558
5.86402
5.8596
5.8403
5.83281
5.65038
5.64713
5.62457
5.61514
5.44599
5.44428
5.42166
5.407
5.24828
5.24755
5.23106
5.20473
5.05596
5.05341
5.04735
5.00714
4.87031
4.86455
4.86142
4.81632
4.69553
4.67102
4.68104
4.63156
4.50746
4.5023
4.50028
4.45487
4.33882
4.34401
4.31507
4.28819
4.17677
4.18196
4.1522
4.12413
4.02007
4.02409
4.00431
3.96303
3.8682
3.86514
3.85855
3.80572
3.72285
3.71347
3.69378
3.65443
3.58625
3.539
3.55795
3.49547
3.43137
3.38257
3.4027
3.34019
3.27211
3.22366
3.24623
3.18326
3.10896
3.06214
3.0894
3.02455
2.94301
2.89882
2.92986
2.86445
2.77608
2.73507
2.76609
2.70418
2.61092
2.57335
2.59992
2.54581
2.45057
2.41678
2.43591
2.39237
2.29659
2.26842
2.27862
2.24752
2.14347
2.13169
2.12505
2.11596
2.01497
2.00461
1.99822
1.99185
1.90024
1.89111
1.88689
1.87967
1.79964
1.7913
1.78866
1.7788
1.71436
1.70593
1.70194
1.68928
1.64596
1.64059
1.62677
1.61255
1.6124
1.63198
1.56531
1.54709
)
;

boundaryField
{
    inlet
    {
        type            cyclic;
    }
    outlet
    {
        type            cyclic;
    }
    fixedWalls-bottom
    {
        beta1           0.075;
        blended         0;
        type            omegaWallFunction;
        value           nonuniform List<scalar> 4(5376.39 5376.39 5376.39 5376.39);
    }
    fixedWalls-top
    {
        type            symmetry;
    }
    frontAndBack
    {
        type            empty;
    }
}


// ************************************************************************* //
