/*--------------------------------*- C++ -*----------------------------------*\
  =========                 |
  \\      /  F ield         | OpenFOAM: The Open Source CFD Toolbox
   \\    /   O peration     | Website:  https://openfoam.org
    \\  /    A nd           | Version:  10
     \\/     M anipulation  |
\*---------------------------------------------------------------------------*/
FoamFile
{
    format      ascii;
    class       volScalarField;
    location    "180";
    object      p;
}
// * * * * * * * * * * * * * * * * * * * * * * * * * * * * * * * * * * * * * //

dimensions      [0 2 -2 0 0 0 0];

internalField   nonuniform List<scalar> 
200
(
-2.96845e-10
-2.81245e-06
-7.62654e-06
-4.81614e-06
-7.06066e-09
-2.81624e-06
-7.62026e-06
-4.81229e-06
-1.34405e-08
-2.82064e-06
-7.61413e-06
-4.80789e-06
-1.7869e-08
-2.82471e-06
-7.60979e-06
-4.80378e-06
-2.01217e-08
-2.82889e-06
-7.60756e-06
-4.79959e-06
-1.99384e-08
-2.8334e-06
-7.60768e-06
-4.79502e-06
-1.675e-08
-2.83894e-06
-7.61089e-06
-4.78945e-06
-9.66388e-09
-2.84608e-06
-7.61798e-06
-4.78224e-06
2.54447e-09
-2.85634e-06
-7.63022e-06
-4.77194e-06
2.14699e-08
-2.87178e-06
-7.64916e-06
-4.75642e-06
4.93444e-08
-2.89585e-06
-7.67708e-06
-4.73232e-06
8.94991e-08
-2.93208e-06
-7.71726e-06
-4.69601e-06
1.46077e-07
-2.98286e-06
-7.77388e-06
-4.64519e-06
2.19166e-07
-3.04394e-06
-7.84699e-06
-4.58402e-06
2.96479e-07
-3.09627e-06
-7.92434e-06
-4.53163e-06
3.72562e-07
-3.13433e-06
-8.00046e-06
-4.49349e-06
4.52984e-07
-3.17165e-06
-8.08092e-06
-4.45611e-06
5.37682e-07
-3.21074e-06
-8.16565e-06
-4.41694e-06
6.2429e-07
-3.25026e-06
-8.2523e-06
-4.37738e-06
7.12522e-07
-3.29253e-06
-8.34057e-06
-4.33503e-06
8.12308e-07
-3.34888e-06
-8.44039e-06
-4.27865e-06
9.4724e-07
-3.43623e-06
-8.57534e-06
-4.19125e-06
1.09156e-06
-3.5437e-06
-8.71977e-06
-4.08391e-06
1.02843e-06
-3.56592e-06
-8.65687e-06
-4.06202e-06
7.03426e-07
-3.52602e-06
-8.33192e-06
-4.10232e-06
2.84475e-07
-3.56497e-06
-7.91295e-06
-4.06336e-06
-1.75663e-07
-3.66748e-06
-7.45289e-06
-3.96058e-06
-6.23832e-07
-3.75823e-06
-7.0048e-06
-3.86963e-06
-1.0958e-06
-3.85525e-06
-6.53292e-06
-3.77251e-06
-1.69842e-06
-3.89581e-06
-5.93039e-06
-3.73196e-06
-2.42054e-06
-3.83808e-06
-5.20821e-06
-3.78992e-06
-3.20448e-06
-3.82954e-06
-4.42415e-06
-3.79822e-06
-4.01207e-06
-3.90709e-06
-3.61643e-06
-3.71983e-06
-4.82283e-06
-3.8742e-06
-2.80551e-06
-3.75227e-06
-5.53476e-06
-3.66432e-06
-2.09331e-06
-3.96249e-06
-6.11176e-06
-3.40553e-06
-1.51608e-06
-4.22172e-06
-6.64256e-06
-3.16391e-06
-9.85007e-07
-4.46363e-06
-7.13307e-06
-2.98952e-06
-4.94281e-07
-4.63811e-06
-7.56672e-06
-2.90825e-06
-6.04349e-08
-4.71932e-06
-7.9369e-06
-2.89487e-06
3.09904e-07
-4.73257e-06
-8.24777e-06
-2.8915e-06
6.2101e-07
-4.73586e-06
-8.50764e-06
-2.84737e-06
8.81152e-07
-4.77994e-06
-8.71496e-06
-2.75191e-06
1.08887e-06
-4.87537e-06
-8.8556e-06
-2.63152e-06
1.22994e-06
-4.99563e-06
-8.93249e-06
-2.52973e-06
1.30727e-06
-5.09725e-06
-8.9683e-06
-2.47476e-06
1.34349e-06
-5.15199e-06
-8.98462e-06
-2.46159e-06
1.36018e-06
-5.16495e-06
-9.00236e-06
-2.46314e-06
1.37826e-06
-5.16325e-06
-9.04096e-06
-2.45558e-06
1.41714e-06
-5.17075e-06
-9.11731e-06
-2.4405e-06
1.49372e-06
-5.18585e-06
)
;

boundaryField
{
    inlet
    {
        type            cyclic;
    }
    outlet
    {
        type            cyclic;
    }
    fixedWalls-bottom
    {
        type            zeroGradient;
    }
    fixedWalls-top
    {
        type            symmetry;
    }
    frontAndBack
    {
        type            empty;
    }
}


// ************************************************************************* //
