/*--------------------------------*- C++ -*----------------------------------*\
  =========                 |
  \\      /  F ield         | OpenFOAM: The Open Source CFD Toolbox
   \\    /   O peration     | Website:  https://openfoam.org
    \\  /    A nd           | Version:  10
     \\/     M anipulation  |
\*---------------------------------------------------------------------------*/
FoamFile
{
    format      ascii;
    class       surfaceScalarField;
    location    "180";
    object      phi;
}
// * * * * * * * * * * * * * * * * * * * * * * * * * * * * * * * * * * * * * //

dimensions      [0 3 -1 0 0 0 0];

internalField   nonuniform List<scalar> 
346
(
0.000319537
-2.3757e-08
0.000319553
-1.62269e-08
0.000319524
2.79044e-08
1.60404e-08
0.000989396
-9.82191e-08
0.00098944
-6.15692e-08
0.000989364
1.03096e-07
6.14592e-08
0.00171026
-2.16696e-07
0.00171034
-1.35646e-07
0.00171022
2.20784e-07
1.35194e-07
0.00248488
-3.70267e-07
0.00248498
-2.36011e-07
0.00248482
3.74938e-07
2.35737e-07
0.003316
-5.57424e-07
0.00331613
-3.61002e-07
0.00331594
5.61541e-07
3.60429e-07
0.00420627
-7.69815e-07
0.00420641
-5.05397e-07
0.0042062
7.74349e-07
5.05072e-07
0.00515789
-1.00662e-06
0.00515805
-6.64014e-07
0.00515782
1.01069e-06
6.63427e-07
0.00617229
-1.25992e-06
0.00617245
-8.28671e-07
0.0061722
1.26427e-06
8.28364e-07
0.00724956
-1.52779e-06
0.00724972
-9.92768e-07
0.00724945
1.53175e-06
9.92241e-07
0.00838817
-1.79816e-06
0.00838833
-1.15167e-06
0.00838806
1.80229e-06
1.15144e-06
0.00958494
-2.06109e-06
0.00958509
-1.30855e-06
0.00958483
2.06485e-06
1.30811e-06
0.0108355
-2.29199e-06
0.0108357
-1.47464e-06
0.0108355
2.29585e-06
1.47448e-06
0.0121356
-2.46519e-06
0.0121357
-1.66689e-06
0.0121356
2.46871e-06
1.66656e-06
0.0134814
-2.54939e-06
0.0134817
-1.90276e-06
0.0134816
2.55297e-06
1.90268e-06
0.0148736
-2.57887e-06
0.0148738
-2.13217e-06
0.0148738
2.58213e-06
2.13195e-06
0.0163147
-2.60314e-06
0.0163148
-2.29351e-06
0.0163148
2.60641e-06
2.2935e-06
0.0178059
-2.64427e-06
0.017806
-2.38105e-06
0.017806
2.64725e-06
2.38094e-06
0.0193484
-2.71094e-06
0.0193484
-2.38401e-06
0.0193484
2.71392e-06
2.38409e-06
0.0209436
-2.80524e-06
0.0209435
-2.2736e-06
0.0209434
2.80794e-06
2.2736e-06
0.0225933
-2.89945e-06
0.022593
-2.01317e-06
0.0225929
2.90213e-06
2.01331e-06
0.0242991
-2.91224e-06
0.0242987
-1.57739e-06
0.0242987
2.91466e-06
1.5775e-06
0.0260623
-2.64531e-06
0.0260617
-9.97227e-07
0.026062
2.64771e-06
9.97435e-07
0.0278832
-1.80378e-06
0.0278826
-4.17093e-07
0.0278834
1.80593e-06
4.173e-07
0.0297645
-8.64728e-07
0.0297638
3.24941e-07
0.0297647
8.66818e-07
-3.24651e-07
0.031713
-4.15355e-07
0.031712
1.29561e-06
0.0317125
4.17208e-07
-1.29528e-06
0.0337335
-3.03873e-07
0.0337327
2.10586e-06
0.0337328
3.05653e-07
-2.10547e-06
0.035829
-3.74693e-07
0.0358285
2.59618e-06
0.0358285
3.76258e-07
-2.59574e-06
0.0380021
-3.08865e-07
0.0380017
2.96389e-06
0.0380018
3.10339e-07
-2.96342e-06
0.0402551
7.70103e-08
0.0402549
3.16216e-06
0.0402553
-7.57488e-08
-3.16162e-06
0.0425911
5.02066e-07
0.042591
3.26835e-06
0.0425915
-5.00924e-07
-3.26778e-06
0.0450129
7.79147e-07
0.0450126
3.56157e-06
0.0450128
-7.78222e-07
-3.56091e-06
0.0475224
9.58193e-07
0.0475222
3.73807e-06
0.0475224
-9.57393e-07
-3.73739e-06
0.0501217
1.15104e-06
0.0501222
3.28802e-06
0.0501224
-1.15044e-06
-3.28729e-06
0.0528127
1.18356e-06
0.0528135
2.48521e-06
0.0528135
-1.18306e-06
-2.48446e-06
0.0555963
1.06014e-06
0.0555969
1.86765e-06
0.0555967
-1.05979e-06
-1.8669e-06
0.0584721
9.49758e-07
0.0584724
1.48763e-06
0.0584723
-9.49474e-07
-1.48688e-06
0.0614393
7.10966e-07
0.0614394
1.32229e-06
0.0614392
-7.10795e-07
-1.32159e-06
0.0644962
3.77759e-07
0.0644962
1.25562e-06
0.0644959
-3.77647e-07
-1.2549e-06
0.0676402
8.36831e-08
0.0676403
1.13711e-06
0.06764
-8.36738e-08
-1.13645e-06
0.0708678
-5.87082e-08
0.070868
9.02203e-07
0.0708679
5.86459e-08
-9.01503e-07
0.0741743
-4.31285e-08
0.0741746
5.79841e-07
0.0741746
4.3e-08
-5.7921e-07
0.0775537
2.89736e-08
0.077554
2.58866e-07
0.0775541
-2.91416e-08
-2.58229e-07
0.0809982
3.04988e-08
0.0809985
1.01047e-08
0.0809985
-3.06617e-08
-9.59065e-09
0.0844971
-4.95764e-08
0.0844973
-1.22851e-07
0.0844972
4.9404e-08
1.23331e-07
0.088036
-1.53837e-07
0.088036
-1.42745e-07
0.0880359
1.53669e-07
1.43123e-07
0.0915946
-2.26409e-07
0.0915946
-9.56244e-08
0.0915945
2.26199e-07
9.59944e-08
0.0951435
-2.09171e-07
0.0951435
-3.67762e-08
0.0951435
2.08914e-07
3.71241e-08
0.0986433
-9.76097e-08
0.0986432
1.53116e-08
0.0986433
9.73236e-08
-1.49915e-08
0.102044
8.27065e-08
0.102044
4.33554e-08
0.102044
-8.29975e-08
-4.30641e-08
0.105289
0.105289
0.105289
)
;

boundaryField
{
    inlet
    {
        type            cyclic;
        value           nonuniform List<scalar> 
50
(
-0.105289
-0.102044
-0.0986434
-0.0951436
-0.0915945
-0.0880359
-0.0844971
-0.0809982
-0.0775538
-0.0741743
-0.0708677
-0.0676399
-0.0644958
-0.061439
-0.0584719
-0.0555961
-0.0528127
-0.0501219
-0.0475226
-0.0450131
-0.0425916
-0.0402555
-0.0380021
-0.035829
-0.0337337
-0.0317134
-0.0297655
-0.027884
-0.0260626
-0.0242991
-0.0225932
-0.0209435
-0.0193484
-0.0178059
-0.0163146
-0.0148736
-0.0134813
-0.0121354
-0.0108353
-0.00958467
-0.0083879
-0.00724929
-0.00617203
-0.00515766
-0.00420605
-0.00331582
-0.00248472
-0.00171015
-0.000989319
-0.000319509
)
;
    }
    outlet
    {
        type            cyclic;
        value           nonuniform List<scalar> 
50
(
0.105289
0.102044
0.0986434
0.0951436
0.0915945
0.0880359
0.0844971
0.0809982
0.0775538
0.0741743
0.0708677
0.0676399
0.0644958
0.061439
0.0584719
0.0555961
0.0528127
0.0501219
0.0475226
0.0450131
0.0425916
0.0402555
0.0380021
0.035829
0.0337337
0.0317134
0.0297655
0.027884
0.0260626
0.0242991
0.0225932
0.0209435
0.0193484
0.0178059
0.0163146
0.0148736
0.0134813
0.0121354
0.0108353
0.00958467
0.0083879
0.00724929
0.00617203
0.00515766
0.00420605
0.00331582
0.00248472
0.00171015
0.000989319
0.000319509
)
;
    }
    fixedWalls-bottom
    {
        type            calculated;
        value           uniform 0;
    }
    fixedWalls-top
    {
        type            symmetry;
        value           uniform 0;
    }
    frontAndBack
    {
        type            empty;
        value           nonuniform List<scalar> 0();
    }
}


// ************************************************************************* //
