/*--------------------------------*- C++ -*----------------------------------*\
  =========                 |
  \\      /  F ield         | OpenFOAM: The Open Source CFD Toolbox
   \\    /   O peration     | Website:  https://openfoam.org
    \\  /    A nd           | Version:  10
     \\/     M anipulation  |
\*---------------------------------------------------------------------------*/
FoamFile
{
    format      ascii;
    class       volSymmTensorField;
    location    "180";
    object      R;
}
// * * * * * * * * * * * * * * * * * * * * * * * * * * * * * * * * * * * * * //

dimensions      [0 2 -2 0 0 0 0];

internalField   nonuniform List<symmTensor> 
200
(
(1.29875e-08 -1.35779e-11 -0 1.29875e-08 -0 1.29875e-08)
(1.29863e-08 -1.35783e-11 -0 1.29863e-08 -0 1.29863e-08)
(1.29745e-08 -1.35655e-11 -0 1.29745e-08 -0 1.29745e-08)
(1.29675e-08 -1.35566e-11 -0 1.29675e-08 -0 1.29675e-08)
(3.92482e-07 -2.39663e-09 -0 3.92482e-07 -0 3.92482e-07)
(3.92448e-07 -2.39666e-09 -0 3.92448e-07 -0 3.92448e-07)
(3.92089e-07 -2.39441e-09 -0 3.92089e-07 -0 3.92089e-07)
(3.91879e-07 -2.39288e-09 -0 3.91879e-07 -0 3.91879e-07)
(2.84096e-06 -5.17403e-08 -0 2.84096e-06 -0 2.84096e-06)
(2.84072e-06 -5.174e-08 -0 2.84072e-06 -0 2.84072e-06)
(2.83812e-06 -5.16919e-08 -0 2.83812e-06 -0 2.83812e-06)
(2.83659e-06 -5.16596e-08 -0 2.83659e-06 -0 2.83659e-06)
(1.05871e-05 -4.11508e-07 -0 1.05871e-05 -0 1.05871e-05)
(1.05862e-05 -4.11497e-07 -0 1.05862e-05 -0 1.05862e-05)
(1.05765e-05 -4.11115e-07 -0 1.05765e-05 -0 1.05765e-05)
(1.05708e-05 -4.10865e-07 -0 1.05708e-05 -0 1.05708e-05)
(2.80618e-05 -1.92602e-06 -0 2.80619e-05 -0 2.80618e-05)
(2.80591e-05 -1.9259e-06 -0 2.80591e-05 -0 2.80591e-05)
(2.80333e-05 -1.92409e-06 -0 2.80333e-05 -0 2.80333e-05)
(2.80184e-05 -1.92297e-06 -0 2.80184e-05 -0 2.80184e-05)
(6.07304e-05 -6.51836e-06 -0 6.07305e-05 -0 6.07305e-05)
(6.07236e-05 -6.51745e-06 -0 6.07237e-05 -0 6.07236e-05)
(6.06673e-05 -6.51117e-06 -0 6.06671e-05 -0 6.06672e-05)
(6.06355e-05 -6.50759e-06 -0 6.06354e-05 -0 6.06354e-05)
(0.000114823 -1.76694e-05 -0 0.000114823 -0 0.000114823)
(0.000114807 -1.76647e-05 -0 0.000114807 -0 0.000114807)
(0.0001147 -1.76469e-05 -0 0.000114699 -0 0.0001147)
(0.000114641 -1.76379e-05 -0 0.000114641 -0 0.000114641)
(0.000196717 -4.05492e-05 -0 0.000196718 -0 0.000196718)
(0.000196685 -4.05306e-05 -0 0.000196686 -0 0.000196686)
(0.0001965 -4.04871e-05 -0 0.000196499 -0 0.000196499)
(0.000196403 -4.04684e-05 -0 0.000196402 -0 0.000196402)
(0.000311826 -8.13526e-05 -0 0.000311828 -0 0.000311827)
(0.000311768 -8.12947e-05 -0 0.000311769 -0 0.000311769)
(0.000311473 -8.12004e-05 -0 0.00031147 -0 0.000311471)
(0.000311326 -8.11676e-05 -0 0.000311325 -0 0.000311325)
(0.000463048 -0.000145595 -0 0.000463052 -0 0.00046305)
(0.000462956 -0.000145451 -0 0.000462959 -0 0.000462957)
(0.000462521 -0.000145269 -0 0.000462518 -0 0.00046252)
(0.000462318 -0.000145218 -0 0.000462316 -0 0.000462317)
(0.000649249 -0.000235788 -0 0.000649255 -0 0.000649252)
(0.000649128 -0.000235505 -0 0.000649132 -0 0.00064913)
(0.000648536 -0.000235186 -0 0.00064853 -0 0.000648533)
(0.000648277 -0.000235116 -0 0.000648273 -0 0.000648275)
(0.000864518 -0.000349649 -0 0.000864526 -0 0.000864522)
(0.000864396 -0.00034921 -0 0.000864403 -0 0.000864399)
(0.000863653 -0.000348706 -0 0.000863645 -0 0.000863649)
(0.000863354 -0.000348607 -0 0.000863348 -0 0.000863351)
(0.0010988 -0.000480023 -0 0.00109881 -0 0.00109881)
(0.00109874 -0.000479501 -0 0.00109875 -0 0.00109874)
(0.00109788 -0.000478791 -0 0.00109787 -0 0.00109787)
(0.00109758 -0.000478621 -0 0.00109757 -0 0.00109758)
(0.00133983 -0.000617454 -0 0.00133984 -0 0.00133983)
(0.00133988 -0.000616957 -0 0.0013399 -0 0.00133989)
(0.00133898 -0.000616025 -0 0.00133897 -0 0.00133897)
(0.00133878 -0.00061588 -0 0.00133876 -0 0.00133877)
(0.00157569 -0.000732695 -0 0.00157569 -0 0.00157569)
(0.00157587 -0.000732784 -0 0.00157589 -0 0.00157588)
(0.00157505 -0.000732399 -0 0.00157505 -0 0.00157505)
(0.00157501 -0.000732374 -0 0.00157499 -0 0.001575)
(0.00179966 -0.000836844 -0 0.00179966 -0 0.00179966)
(0.00179986 -0.00083694 -0 0.00179988 -0 0.00179987)
(0.00179922 -0.000836638 -0 0.00179922 -0 0.00179922)
(0.00179932 -0.000836681 -0 0.00179931 -0 0.00179931)
(0.00200678 -0.000933154 -0 0.00200678 -0 0.00200678)
(0.0020069 -0.000933213 -0 0.00200691 -0 0.00200691)
(0.00200647 -0.000933007 -0 0.00200646 -0 0.00200646)
(0.00200692 -0.000933218 -0 0.00200691 -0 0.00200692)
(0.00219322 -0.00101987 -0 0.00219323 -0 0.00219323)
(0.00219333 -0.00101991 -0 0.00219333 -0 0.00219333)
(0.00219309 -0.0010198 -0 0.00219308 -0 0.00219309)
(0.00219399 -0.00102022 -0 0.00219399 -0 0.00219399)
(0.00235692 -0.0010961 -0 0.00235694 -0 0.00235693)
(0.00235678 -0.00109602 -0 0.00235677 -0 0.00235678)
(0.00235679 -0.00109602 -0 0.00235677 -0 0.00235678)
(0.00235827 -0.00109672 -0 0.00235829 -0 0.00235828)
(0.00249693 -0.00116178 -0 0.00249694 -0 0.00249693)
(0.00249626 -0.00116144 -0 0.00249622 -0 0.00249624)
(0.00249651 -0.00116155 -0 0.0024965 -0 0.00249651)
(0.00249878 -0.00116261 -0 0.00249882 -0 0.0024988)
(0.00261317 -0.00121796 -0 0.00261317 -0 0.00261317)
(0.00261167 -0.00121722 -0 0.0026116 -0 0.00261163)
(0.00261217 -0.00121736 -0 0.00261217 -0 0.00261217)
(0.00261541 -0.00121887 -0 0.00261547 -0 0.00261544)
(0.00270608 -0.00126712 -0 0.00270602 -0 0.00270606)
(0.00270362 -0.00126589 -0 0.00270354 -0 0.00270358)
(0.00270422 -0.00126588 -0 0.00270427 -0 0.00270424)
(0.0027086 -0.00126781 -0 0.00270869 -0 0.00270864)
(0.00277618 -0.00131288 -0 0.00277605 -0 0.00277611)
(0.00277272 -0.00131113 -0 0.00277261 -0 0.00277267)
(0.00277335 -0.00131066 -0 0.00277348 -0 0.00277342)
(0.00277901 -0.00131299 -0 0.00277912 -0 0.00277906)
(0.0028233 -0.00133714 -0 0.00282314 -0 0.00282321)
(0.00281892 -0.00133569 -0 0.00281878 -0 0.00281885)
(0.0028197 -0.00134107 -0 0.00281985 -0 0.00281978)
(0.0028269 -0.00134824 -0 0.00282704 -0 0.00282697)
(0.00284864 -0.0013406 -0 0.00284855 -0 0.0028486)
(0.0028435 -0.00133881 -0 0.00284334 -0 0.00284342)
(0.00284393 -0.00134278 -0 0.00284402 -0 0.00284397)
(0.00285247 -0.00135309 -0 0.00285263 -0 0.00285255)
(0.00285452 -0.00133757 -0 0.0028545 -0 0.00285451)
(0.00284878 -0.00133598 -0 0.00284864 -0 0.00284871)
(0.00284872 -0.00133776 -0 0.00284874 -0 0.00284873)
(0.00285844 -0.0013523 -0 0.00285858 -0 0.00285851)
(0.00284234 -0.00132695 -0 0.00284235 -0 0.00284235)
(0.00283609 -0.0013254 -0 0.002836 -0 0.00283605)
(0.00283586 -0.0013269 -0 0.00283586 -0 0.00283586)
(0.00284626 -0.00134345 -0 0.00284636 -0 0.0028463)
(0.00281337 -0.00130757 -0 0.00281335 -0 0.00281336)
(0.00280733 -0.00131077 -0 0.00280727 -0 0.0028073)
(0.00280653 -0.00130879 -0 0.00280655 -0 0.00280654)
(0.00281728 -0.00132717 -0 0.00281735 -0 0.00281732)
(0.00276936 -0.00128652 -0 0.00276929 -0 0.00276932)
(0.0027628 -0.00128465 -0 0.00276276 -0 0.00276278)
(0.00276203 -0.00128549 -0 0.00276209 -0 0.00276207)
(0.00277269 -0.00130339 -0 0.00277273 -0 0.00277271)
(0.00271044 -0.00125523 -0 0.00271036 -0 0.0027104)
(0.00270338 -0.00125099 -0 0.00270334 -0 0.00270337)
(0.00270322 -0.00125871 -0 0.00270329 -0 0.00270326)
(0.00271359 -0.00127193 -0 0.00271362 -0 0.0027136)
(0.00263773 -0.0012177 -0 0.00263768 -0 0.00263771)
(0.00263067 -0.00121364 -0 0.00263063 -0 0.00263065)
(0.00263058 -0.00122153 -0 0.00263063 -0 0.0026306)
(0.00264092 -0.00123519 -0 0.00264096 -0 0.00264094)
(0.00255227 -0.00117412 -0 0.00255224 -0 0.00255226)
(0.00254564 -0.00117058 -0 0.00254563 -0 0.00254562)
(0.00254535 -0.00117626 -0 0.00254539 -0 0.00254537)
(0.00255568 -0.00119321 -0 0.0025557 -0 0.0025557)
(0.00245505 -0.00112487 -0 0.00245502 -0 0.00245503)
(0.00244949 -0.00112399 -0 0.00244956 -0 0.00244953)
(0.002449 -0.00112579 -0 0.00244902 -0 0.00244901)
(0.00245901 -0.00114579 -0 0.00245895 -0 0.00245897)
(0.00234709 -0.00106989 -0 0.00234708 -0 0.00234709)
(0.00234324 -0.00107122 -0 0.00234336 -0 0.00234331)
(0.00234293 -0.00107651 -0 0.00234294 -0 0.00234293)
(0.00235202 -0.00109226 -0 0.0023519 -0 0.00235195)
(0.00222972 -0.0010085 -0 0.00222974 -0 0.00222974)
(0.0022284 -0.00102085 -0 0.00222851 -0 0.00222845)
(0.00222705 -0.00101491 -0 0.00222704 -0 0.00222704)
(0.00223581 -0.00103682 -0 0.00223571 -0 0.00223576)
(0.00210533 -0.000948436 -0 0.00210536 -0 0.00210534)
(0.00210545 -0.000961516 -0 0.00210551 -0 0.00210548)
(0.00210344 -0.000955191 -0 0.00210342 -0 0.00210343)
(0.00211134 -0.000976331 -0 0.00211129 -0 0.00211132)
(0.00197378 -0.000885643 -0 0.00197382 -0 0.0019738)
(0.00197456 -0.000899022 -0 0.00197458 -0 0.00197457)
(0.00197236 -0.000891805 -0 0.00197233 -0 0.00197234)
(0.00197941 -0.000912505 -0 0.00197939 -0 0.0019794)
(0.00183584 -0.00082053 -0 0.00183588 -0 0.00183586)
(0.00183685 -0.000833368 -0 0.00183686 -0 0.00183685)
(0.00183457 -0.000825086 -0 0.00183452 -0 0.00183454)
(0.00184084 -0.00084552 -0 0.00184083 -0 0.00184083)
(0.00169226 -0.000752981 -0 0.0016923 -0 0.00169228)
(0.00169328 -0.000764772 -0 0.00169329 -0 0.00169328)
(0.00169101 -0.000755875 -0 0.00169097 -0 0.00169099)
(0.0016965 -0.000775534 -0 0.00169649 -0 0.0016965)
(0.00154389 -0.000682826 -0 0.00154391 -0 0.0015439)
(0.00154481 -0.000693346 -0 0.00154484 -0 0.00154482)
(0.00154274 -0.000684874 -0 0.00154272 -0 0.00154273)
(0.00154738 -0.000702587 -0 0.00154735 -0 0.00154736)
(0.00139197 -0.000609985 -0 0.00139197 -0 0.00139197)
(0.00139274 -0.000619142 -0 0.00139278 -0 0.00139276)
(0.00139109 -0.000612208 -0 0.00139108 -0 0.00139108)
(0.0013948 -0.000626851 -0 0.00139476 -0 0.00139478)
(0.00123801 -0.000534619 -0 0.00123801 -0 0.00123801)
(0.00123861 -0.000542303 -0 0.00123864 -0 0.00123863)
(0.00123749 -0.000537569 -0 0.00123749 -0 0.00123749)
(0.00124029 -0.000548554 -0 0.00124026 -0 0.00124028)
(0.00108383 -0.000457396 -0 0.00108383 -0 0.00108383)
(0.00108423 -0.000463286 -0 0.00108425 -0 0.00108424)
(0.00108363 -0.000460835 -0 0.00108362 -0 0.00108362)
(0.00108559 -0.000468107 -0 0.00108557 -0 0.00108558)
(0.000932179 -0.000380896 -0 0.000932188 -0 0.000932186)
(0.000932245 -0.000383157 -0 0.000932256 -0 0.00093225)
(0.000932143 -0.000384097 -0 0.000932134 -0 0.000932137)
(0.000933267 -0.000386385 -0 0.000933256 -0 0.000933262)
(0.000786287 -0.000303002 -0 0.000786298 -0 0.000786294)
(0.000786249 -0.000304633 -0 0.00078625 -0 0.000786249)
(0.000786179 -0.000305441 -0 0.000786168 -0 0.000786172)
(0.00078699 -0.000306873 -0 0.000786988 -0 0.00078699)
(0.000650957 -0.00022884 -0 0.000650964 -0 0.000650962)
(0.000650868 -0.00022992 -0 0.000650865 -0 0.000650866)
(0.000650891 -0.000230414 -0 0.000650883 -0 0.000650885)
(0.000651422 -0.000231545 -0 0.000651425 -0 0.000651424)
(0.000531856 -0.000161613 -0 0.000531858 -0 0.000531859)
(0.000531812 -0.000162339 -0 0.000531809 -0 0.00053181)
(0.00053181 -0.000162588 -0 0.000531808 -0 0.000531807)
(0.000532186 -0.000163629 -0 0.00053219 -0 0.000532188)
(0.000434946 -0.000104096 -0 0.000434943 -0 0.000434946)
(0.000434887 -0.000104584 -0 0.000434884 -0 0.000434886)
(0.000434847 -0.000104837 -0 0.000434849 -0 0.000434847)
(0.000435235 -0.000105723 -0 0.000435239 -0 0.000435237)
(0.000365897 -5.72841e-05 -0 0.000365894 -0 0.000365896)
(0.000365621 -5.74469e-05 -0 0.000365619 -0 0.00036562)
(0.000365726 -5.79463e-05 -0 0.000365729 -0 0.000365728)
(0.000366189 -5.85147e-05 -0 0.00036619 -0 0.00036619)
(0.000329216 -1.81157e-05 -0 0.000329219 -0 0.000329219)
(0.000328176 -1.78625e-05 -0 0.000328177 -0 0.000328176)
(0.00032922 -1.86701e-05 -0 0.000329217 -0 0.000329217)
(0.000329867 -1.89111e-05 -0 0.000329865 -0 0.000329866)
)
;

boundaryField
{
    inlet
    {
        type            cyclic;
    }
    outlet
    {
        type            cyclic;
    }
    fixedWalls-bottom
    {
        type            kqRWallFunction;
        value           nonuniform List<symmTensor> 4((1.29875e-08 -0 -0 1.29875e-08 -0 1.29875e-08) (1.29863e-08 -0 -0 1.29863e-08 -0 1.29863e-08) (1.29745e-08 -0 -0 1.29745e-08 -0 1.29745e-08) (1.29675e-08 -0 -0 1.29675e-08 -0 1.29675e-08));
    }
    fixedWalls-top
    {
        type            symmetry;
    }
    frontAndBack
    {
        type            empty;
    }
}


// ************************************************************************* //
