/*--------------------------------*- C++ -*----------------------------------*\
  =========                 |
  \\      /  F ield         | OpenFOAM: The Open Source CFD Toolbox
   \\    /   O peration     | Website:  https://openfoam.org
    \\  /    A nd           | Version:  10
     \\/     M anipulation  |
\*---------------------------------------------------------------------------*/
FoamFile
{
    format      ascii;
    class       volVectorField;
    location    "180";
    object      U;
}
// * * * * * * * * * * * * * * * * * * * * * * * * * * * * * * * * * * * * * //

dimensions      [0 1 -1 0 0 0 0];

internalField   nonuniform List<vector> 
200
(
(0.017341 -2.47911e-09 0)
(0.0173432 -3.42303e-09 0)
(0.0173426 4.893e-09 0)
(0.0173404 3.33689e-09 0)
(0.0521961 -5.29918e-08 0)
(0.0522022 -3.28716e-08 0)
(0.0522006 5.776e-08 0)
(0.0521945 3.26961e-08 0)
(0.0877093 -1.48334e-07 0)
(0.0877189 -9.20714e-08 0)
(0.0877167 1.53116e-07 0)
(0.0877072 9.17863e-08 0)
(0.123881 -2.85887e-07 0)
(0.123893 -1.79773e-07 0)
(0.12389 2.90462e-07 0)
(0.123878 1.79409e-07 0)
(0.160704 -4.58126e-07 0)
(0.160719 -2.93482e-07 0)
(0.160716 4.62571e-07 0)
(0.160702 2.93063e-07 0)
(0.198164 -6.59516e-07 0)
(0.19818 -4.29508e-07 0)
(0.198177 6.63821e-07 0)
(0.198161 4.29052e-07 0)
(0.236219 -8.85517e-07 0)
(0.236237 -5.82503e-07 0)
(0.236233 8.89802e-07 0)
(0.236216 5.82046e-07 0)
(0.274792 -1.13212e-06 0)
(0.27481 -7.4553e-07 0)
(0.274806 1.13632e-06 0)
(0.274788 7.45076e-07 0)
(0.31375 -1.39473e-06 0)
(0.313768 -9.10666e-07 0)
(0.313764 1.39888e-06 0)
(0.313746 9.1025e-07 0)
(0.352902 -1.66713e-06 0)
(0.35292 -1.07178e-06 0)
(0.352915 1.67115e-06 0)
(0.352897 1.0714e-06 0)
(0.392004 -1.93894e-06 0)
(0.392021 -1.22812e-06 0)
(0.392017 1.94287e-06 0)
(0.392 1.22778e-06 0)
(0.430791 -2.19174e-06 0)
(0.430807 -1.38852e-06 0)
(0.430804 2.19554e-06 0)
(0.43079 1.38822e-06 0)
(0.469018 -2.39403e-06 0)
(0.469034 -1.57176e-06 0)
(0.469033 2.39772e-06 0)
(0.469021 1.57151e-06 0)
(0.5065 -2.51418e-06 0)
(0.506516 -1.79894e-06 0)
(0.506518 2.51772e-06 0)
(0.50651 1.79875e-06 0)
(0.543217 -2.5767e-06 0)
(0.543231 -2.01756e-06 0)
(0.543234 2.58012e-06 0)
(0.543229 2.01742e-06 0)
(0.57923 -2.59134e-06 0)
(0.57924 -2.22573e-06 0)
(0.579241 2.5946e-06 0)
(0.579239 2.22562e-06 0)
(0.614542 -2.61664e-06 0)
(0.614549 -2.35825e-06 0)
(0.614548 2.61977e-06 0)
(0.614547 2.3582e-06 0)
(0.649152 -2.66796e-06 0)
(0.649157 -2.40731e-06 0)
(0.649152 2.67094e-06 0)
(0.649154 2.40731e-06 0)
(0.683072 -2.75408e-06 0)
(0.683075 -2.3556e-06 0)
(0.683065 2.75691e-06 0)
(0.683069 2.35564e-06 0)
(0.716322 -2.87318e-06 0)
(0.71632 -2.17059e-06 0)
(0.716306 2.87585e-06 0)
(0.716315 2.17066e-06 0)
(0.748918 -2.96391e-06 0)
(0.74891 -1.82454e-06 0)
(0.748891 2.96648e-06 0)
(0.74891 1.82472e-06 0)
(0.780858 -2.81382e-06 0)
(0.780841 -1.34431e-06 0)
(0.780823 2.8164e-06 0)
(0.780858 1.34466e-06 0)
(0.812112 -2.12081e-06 0)
(0.812088 -8.12194e-07 0)
(0.812078 2.12298e-06 0)
(0.812138 8.12166e-07 0)
(0.842725 -1.40949e-06 0)
(0.842702 3.41401e-08 0)
(0.842683 1.41148e-06 0)
(0.842756 -3.40281e-08 0)
(0.87284 -5.96641e-07 0)
(0.872825 8.5786e-07 0)
(0.872786 5.98819e-07 0)
(0.872851 -8.57382e-07 0)
(0.902547 -3.22352e-07 0)
(0.902544 1.71434e-06 0)
(0.902503 3.24111e-07 0)
(0.902551 -1.71395e-06 0)
(0.931867 -3.74467e-07 0)
(0.931872 2.37935e-06 0)
(0.931841 3.7608e-07 0)
(0.931869 -2.37892e-06 0)
(0.960822 -3.15482e-07 0)
(0.960811 2.84497e-06 0)
(0.960803 3.17032e-07 0)
(0.960815 -2.8444e-06 0)
(0.989405 -1.26024e-07 0)
(0.989374 2.97643e-06 0)
(0.989395 1.27315e-07 0)
(0.989394 -2.97648e-06 0)
(1.01761 2.54743e-07 0)
(1.01759 3.28851e-06 0)
(1.01761 -2.53637e-07 0)
(1.01761 -3.28776e-06 0)
(1.04547 6.48386e-07 0)
(1.04546 3.51366e-06 0)
(1.04545 -6.47282e-07 0)
(1.04547 -3.5129e-06 0)
(1.07296 8.40151e-07 0)
(1.07297 3.67774e-06 0)
(1.07295 -8.39324e-07 0)
(1.07297 -3.67708e-06 0)
(1.10007 1.03887e-06 0)
(1.10009 3.45323e-06 0)
(1.10009 -1.03838e-06 0)
(1.1001 -3.45297e-06 0)
(1.12679 1.08654e-06 0)
(1.12683 3.00696e-06 0)
(1.12682 -1.08621e-06 0)
(1.12683 -3.00586e-06 0)
(1.15309 1.23632e-06 0)
(1.15313 2.18679e-06 0)
(1.15311 -1.23575e-06 0)
(1.15312 -2.18615e-06 0)
(1.17892 1.06068e-06 0)
(1.17893 1.65547e-06 0)
(1.17893 -1.06026e-06 0)
(1.17893 -1.65454e-06 0)
(1.20419 8.49473e-07 0)
(1.2042 1.40361e-06 0)
(1.2042 -8.49148e-07 0)
(1.20419 -1.40268e-06 0)
(1.22885 5.39396e-07 0)
(1.22885 1.28548e-06 0)
(1.22885 -5.39222e-07 0)
(1.22883 -1.28467e-06 0)
(1.2528 2.00879e-07 0)
(1.2528 1.17263e-06 0)
(1.25281 -2.00808e-07 0)
(1.25279 -1.17201e-06 0)
(1.27597 -2.46411e-08 0)
(1.27596 9.85104e-07 0)
(1.27598 2.4622e-08 0)
(1.27596 -9.84569e-07 0)
(1.29825 -7.4652e-08 0)
(1.29824 7.17199e-07 0)
(1.29826 7.45153e-08 0)
(1.29824 -7.16644e-07 0)
(1.31953 -1.08884e-08 0)
(1.31952 4.20165e-07 0)
(1.31955 1.06903e-08 0)
(1.31952 -4.19537e-07 0)
(1.3397 4.23543e-08 0)
(1.33968 1.49535e-07 0)
(1.33971 -4.24926e-08 0)
(1.33968 -1.48899e-07 0)
(1.35858 3.15912e-08 0)
(1.35857 -4.5712e-08 0)
(1.35859 -3.16315e-08 0)
(1.35857 4.63233e-08 0)
(1.37599 -7.6909e-08 0)
(1.37599 -1.42233e-07 0)
(1.37599 7.68631e-08 0)
(1.37598 1.4276e-07 0)
(1.39168 -1.83451e-07 0)
(1.39168 -1.48068e-07 0)
(1.39168 1.83332e-07 0)
(1.39167 1.48485e-07 0)
(1.40527 -2.20543e-07 0)
(1.40527 -1.01479e-07 0)
(1.40527 2.20315e-07 0)
(1.40527 1.01803e-07 0)
(1.41632 -1.54454e-07 0)
(1.41632 -2.79606e-08 0)
(1.41632 1.54085e-07 0)
(1.41632 2.81668e-08 0)
(1.42428 -9.68358e-09 0)
(1.42428 6.78711e-08 0)
(1.42428 9.38027e-09 0)
(1.42428 -6.75175e-08 0)
(1.42858 -2.97681e-08 0)
(1.42858 4.98486e-08 0)
(1.42858 2.93414e-08 0)
(1.42858 -4.9683e-08 0)
)
;

boundaryField
{
    inlet
    {
        type            cyclic;
    }
    outlet
    {
        type            cyclic;
    }
    fixedWalls-bottom
    {
        type            noSlip;
    }
    fixedWalls-top
    {
        type            symmetry;
    }
    frontAndBack
    {
        type            empty;
    }
}


// ************************************************************************* //
