# Residuals   
# Time        	p             	Ux            	Uy            
0             	N/A	N/A
1             	9.999963e-01	0.000000e+00	0.000000e+00
2             	1.000000e+00	9.929672e-01	1.000000e+00
3             	2.078693e-01	3.776862e-01	6.417803e-01
4             	1.342369e-01	1.071265e-01	3.844303e-01
5             	2.206137e-01	1.127779e-01	4.153479e-01
6             	5.071299e-01	1.123805e-01	5.226342e-01
7             	5.224591e-01	1.030628e-01	5.177965e-01
8             	3.584704e-01	1.016013e-01	4.569563e-01
9             	2.334249e-01	7.821281e-02	3.998917e-01
10            	2.535657e-01	5.380214e-02	4.098088e-01
11            	3.111853e-01	3.890422e-02	5.564695e-01
12            	2.914192e-01	2.859294e-02	6.317542e-01
13            	2.115202e-01	2.308279e-02	4.630008e-01
14            	2.198649e-01	2.066945e-02	4.406384e-01
15            	3.626158e-01	1.753273e-02	2.818148e-01
16            	1.847586e-01	1.596448e-02	3.374588e-01
17            	9.604150e-02	1.385528e-02	2.839596e-01
18            	7.761537e-02	1.266670e-02	2.842896e-01
19            	5.933920e-02	1.169842e-02	2.399805e-01
20            	4.981052e-02	1.093253e-02	1.844949e-01
21            	3.928076e-02	1.052944e-02	1.943021e-01
22            	3.288659e-02	1.015920e-02	2.048451e-01
23            	3.426333e-02	9.826888e-03	1.944404e-01
24            	4.262521e-02	9.482956e-03	1.865359e-01
25            	7.376644e-02	9.190208e-03	1.823675e-01
26            	7.105056e-02	8.895281e-03	1.597239e-01
27            	3.894275e-02	8.625225e-03	1.236655e-01
28            	2.195070e-02	8.368160e-03	9.628925e-02
29            	1.237778e-02	8.128784e-03	9.077429e-02
30            	7.706612e-03	7.909947e-03	7.814227e-02
31            	5.757254e-03	7.706917e-03	6.232896e-02
32            	4.507024e-03	7.469391e-03	5.201896e-02
33            	3.542492e-03	7.175382e-03	4.436295e-02
34            	2.797821e-03	6.904025e-03	3.973398e-02
35            	2.324636e-03	6.662309e-03	3.479267e-02
36            	1.945619e-03	6.438366e-03	3.076957e-02
37            	1.646082e-03	6.237179e-03	2.796269e-02
38            	1.505478e-03	6.048837e-03	2.622515e-02
39            	1.299454e-03	5.879492e-03	2.522871e-02
40            	1.103617e-03	5.721294e-03	2.463563e-02
41            	1.010644e-03	5.579295e-03	2.441571e-02
42            	9.131005e-04	5.447618e-03	2.469367e-02
43            	8.663440e-04	5.325636e-03	2.527052e-02
44            	7.688892e-04	5.212261e-03	2.588166e-02
45            	7.207940e-04	5.106935e-03	2.662012e-02
46            	6.880777e-04	5.008426e-03	2.743888e-02
47            	6.227911e-04	4.915072e-03	2.787996e-02
48            	5.869114e-04	4.827175e-03	2.783980e-02
49            	5.373177e-04	4.743169e-03	2.761332e-02
50            	5.310263e-04	4.664100e-03	2.716858e-02
51            	5.015862e-04	4.590441e-03	2.698783e-02
52            	4.682276e-04	4.519630e-03	2.676011e-02
53            	4.419941e-04	4.450552e-03	2.620137e-02
54            	4.210648e-04	4.385621e-03	2.601366e-02
55            	3.972022e-04	4.323277e-03	2.566165e-02
56            	3.719576e-04	4.264170e-03	2.526760e-02
57            	3.627112e-04	4.205845e-03	2.440557e-02
58            	3.657647e-04	4.150662e-03	2.371244e-02
59            	3.472451e-04	4.097615e-03	2.349089e-02
60            	3.222268e-04	4.047480e-03	2.329342e-02
61            	3.110439e-04	3.999079e-03	2.267356e-02
62            	2.951018e-04	3.951794e-03	2.190169e-02
63            	2.841894e-04	3.904986e-03	2.117879e-02
64            	3.024321e-04	3.860471e-03	2.013454e-02
65            	2.940048e-04	3.819446e-03	1.950871e-02
66            	2.769412e-04	3.779539e-03	1.890915e-02
67            	2.667910e-04	3.740779e-03	1.853623e-02
68            	2.524671e-04	3.702676e-03	1.823078e-02
69            	2.294752e-04	3.665690e-03	1.798826e-02
70            	2.305506e-04	3.630863e-03	1.747354e-02
71            	2.558288e-04	3.598096e-03	1.726807e-02
72            	2.526314e-04	3.566169e-03	1.728652e-02
73            	2.482547e-04	3.535082e-03	1.722670e-02
74            	2.369552e-04	3.504737e-03	1.707656e-02
75            	2.356584e-04	3.475165e-03	1.698719e-02
76            	2.292015e-04	3.447548e-03	1.697895e-02
77            	2.497916e-04	3.420880e-03	1.700086e-02
78            	2.437805e-04	3.395270e-03	1.689738e-02
79            	2.313436e-04	3.370359e-03	1.687109e-02
80            	2.212749e-04	3.346341e-03	1.675521e-02
81            	2.204712e-04	3.323107e-03	1.675908e-02
82            	2.171696e-04	3.301614e-03	1.687260e-02
83            	2.484752e-04	3.280638e-03	1.695004e-02
84            	2.365964e-04	3.260907e-03	1.684807e-02
85            	2.303189e-04	3.241207e-03	1.689302e-02
86            	2.222764e-04	3.222414e-03	1.689813e-02
87            	2.173354e-04	3.204086e-03	1.700720e-02
88            	2.088741e-04	3.186364e-03	1.704493e-02
89            	2.357480e-04	3.169661e-03	1.712859e-02
90            	2.373596e-04	3.154075e-03	1.723191e-02
91            	2.258600e-04	3.138746e-03	1.719030e-02
92            	2.174959e-04	3.123685e-03	1.727960e-02
93            	2.169195e-04	3.109247e-03	1.745239e-02
94            	2.080264e-04	3.094907e-03	1.745682e-02
95            	2.033096e-04	3.080753e-03	1.748589e-02
96            	2.449153e-04	3.067399e-03	1.758969e-02
97            	2.322686e-04	3.054655e-03	1.752296e-02
98            	2.207559e-04	3.042205e-03	1.757489e-02
99            	2.197855e-04	3.030042e-03	1.767952e-02
100           	2.197855e-04	3.018216e-03	1.777528e-02
101           	2.003746e-04	3.006534e-03	1.783660e-02
102           	2.533336e-04	2.995309e-03	1.781861e-02
103           	2.293336e-04	2.984302e-03	1.773695e-02
104           	2.197940e-04	2.973480e-03	1.785805e-02
105           	2.055394e-04	2.961594e-03	1.768279e-02
106           	2.137732e-04	2.951649e-03	1.749580e-02
107           	2.081236e-04	2.941708e-03	1.767378e-02
108           	2.679582e-04	2.932076e-03	1.761873e-02
109           	2.454152e-04	2.922830e-03	1.755544e-02
110           	2.315078e-04	2.913715e-03	1.745101e-02
111           	2.191669e-04	2.904806e-03	1.758593e-02
112           	2.222401e-04	2.895807e-03	1.756651e-02
113           	2.062382e-04	2.887087e-03	1.770606e-02
114           	2.362786e-04	2.878636e-03	1.746758e-02
115           	2.486229e-04	2.870860e-03	1.771330e-02
116           	2.342264e-04	2.863371e-03	1.771419e-02
117           	2.260051e-04	2.855993e-03	1.767838e-02
118           	2.196060e-04	2.848767e-03	1.758755e-02
119           	2.151917e-04	2.841735e-03	1.787584e-02
120           	2.222758e-04	2.834816e-03	1.771360e-02
121           	2.799382e-04	2.828173e-03	1.784510e-02
122           	2.700148e-04	2.821837e-03	1.759099e-02
123           	2.508752e-04	2.815643e-03	1.777168e-02
124           	2.485462e-04	2.809532e-03	1.763411e-02
125           	2.286460e-04	2.803516e-03	1.762431e-02
126           	2.168454e-04	2.797712e-03	1.731684e-02
127           	2.995841e-04	2.792154e-03	1.754701e-02
128           	2.814841e-04	2.786796e-03	1.747030e-02
129           	2.721657e-04	2.781627e-03	1.763543e-02
130           	2.586889e-04	2.776598e-03	1.740262e-02
131           	2.405758e-04	2.771733e-03	1.755083e-02
132           	2.327564e-04	2.766904e-03	1.742567e-02
133           	2.231648e-04	2.762179e-03	1.743960e-02
134           	3.094431e-04	2.757707e-03	1.718077e-02
135           	2.868333e-04	2.753392e-03	1.727635e-02
136           	2.789364e-04	2.749127e-03	1.736526e-02
137           	2.648721e-04	2.744969e-03	1.745162e-02
138           	2.522938e-04	2.741167e-03	1.713888e-02
139           	2.450786e-04	2.737472e-03	1.727776e-02
140           	2.724909e-04	2.733839e-03	1.705885e-02
141           	3.372176e-04	2.730449e-03	1.712336e-02
142           	3.242431e-04	2.727259e-03	1.684368e-02
143           	2.968194e-04	2.724124e-03	1.704084e-02
144           	2.859329e-04	2.721052e-03	1.692019e-02
145           	2.756246e-04	2.718000e-03	1.693721e-02
146           	2.612328e-04	2.715022e-03	1.665529e-02
147           	3.380950e-04	2.712091e-03	1.680773e-02
148           	3.568305e-04	2.709408e-03	1.674553e-02
149           	3.371169e-04	2.707099e-03	1.676600e-02
150           	3.201405e-04	2.704843e-03	1.651542e-02
151           	2.886025e-04	2.702616e-03	1.666945e-02
152           	2.776051e-04	2.700480e-03	1.650608e-02
153           	2.685142e-04	2.698379e-03	1.654909e-02
154           	3.691644e-04	2.696299e-03	1.621668e-02
155           	3.939138e-04	2.694386e-03	1.631472e-02
156           	3.756858e-04	2.692518e-03	1.611557e-02
157           	3.497110e-04	2.690677e-03	1.614335e-02
158           	3.315185e-04	2.688841e-03	1.592574e-02
159           	3.073138e-04	2.687440e-03	1.603249e-02
160           	2.947773e-04	2.686077e-03	1.584098e-02
161           	3.151680e-04	2.684728e-03	1.581572e-02
162           	4.635183e-04	2.683607e-03	1.565470e-02
163           	4.106584e-04	2.682555e-03	1.588153e-02
164           	3.904311e-04	2.681526e-03	1.577755e-02
165           	3.654608e-04	2.680465e-03	1.575127e-02
166           	3.553446e-04	2.679351e-03	1.557578e-02
167           	3.210012e-04	2.678211e-03	1.560557e-02
168           	3.193858e-04	2.677316e-03	1.545841e-02
169           	5.388152e-04	2.676818e-03	1.540514e-02
170           	4.753311e-04	2.676374e-03	1.537745e-02
171           	4.512930e-04	2.676028e-03	1.549108e-02
172           	4.210972e-04	2.675707e-03	1.531272e-02
173           	4.134943e-04	2.675326e-03	1.514566e-02
174           	3.700152e-04	2.674908e-03	1.503595e-02
175           	3.531140e-04	2.674480e-03	1.498907e-02
176           	5.928921e-04	2.674078e-03	1.495033e-02
177           	5.367554e-04	2.673771e-03	1.502509e-02
178           	5.064990e-04	2.673868e-03	1.504264e-02
179           	4.943225e-04	2.674101e-03	1.485292e-02
180           	4.493515e-04	2.674358e-03	1.463205e-02
181           	4.332621e-04	2.674630e-03	1.444737e-02
182           	4.133488e-04	2.674848e-03	1.453134e-02
183           	6.146585e-04	2.675067e-03	1.446570e-02
184           	5.988635e-04	2.675378e-03	1.452894e-02
185           	5.717883e-04	2.675717e-03	1.463843e-02
186           	5.167868e-04	2.675776e-03	1.462908e-02
187           	5.035460e-04	2.676244e-03	1.447092e-02
188           	4.358974e-04	2.676998e-03	1.427555e-02
189           	5.230400e-04	2.677842e-03	1.417930e-02
190           	4.870379e-04	2.678650e-03	1.412795e-02
191           	7.955581e-04	2.679504e-03	1.385386e-02
192           	6.844391e-04	2.680395e-03	1.383006e-02
193           	6.579328e-04	2.681119e-03	1.377873e-02
194           	5.653277e-04	2.681643e-03	1.370790e-02
195           	5.281012e-04	2.682099e-03	1.359251e-02
196           	4.947699e-04	2.682957e-03	1.353625e-02
197           	6.533266e-04	2.684242e-03	1.352339e-02
198           	9.236562e-04	2.685586e-03	1.316200e-02
199           	8.549747e-04	2.687002e-03	1.314321e-02
200           	7.716042e-04	2.688348e-03	1.319711e-02
201           	7.249940e-04	2.689471e-03	1.312037e-02
202           	6.559757e-04	2.690474e-03	1.303224e-02
203           	6.306582e-04	2.691459e-03	1.287979e-02
204           	5.777090e-04	2.692447e-03	1.275137e-02
205           	8.588369e-04	2.693598e-03	1.279110e-02
206           	1.129837e-03	2.695524e-03	1.239124e-02
207           	1.062529e-03	2.697489e-03	1.244709e-02
208           	9.535101e-04	2.699183e-03	1.240552e-02
209           	8.755322e-04	2.700746e-03	1.234188e-02
210           	7.887995e-04	2.702250e-03	1.221437e-02
211           	7.776020e-04	2.703765e-03	1.207219e-02
212           	7.058419e-04	2.705298e-03	1.198092e-02
213           	1.548335e-03	2.706974e-03	1.191362e-02
214           	1.318510e-03	2.708309e-03	1.183998e-02
215           	1.318372e-03	2.710587e-03	1.178005e-02
216           	1.176532e-03	2.712667e-03	1.173829e-02
217           	1.104232e-03	2.714683e-03	1.159366e-02
218           	9.918882e-04	2.716676e-03	1.145731e-02
219           	9.946440e-04	2.718700e-03	1.135316e-02
220           	1.309707e-03	2.720780e-03	1.119705e-02
221           	1.959134e-03	2.722486e-03	1.147898e-02
222           	1.755522e-03	2.723598e-03	1.126529e-02
223           	1.774567e-03	2.726066e-03	1.115091e-02
224           	1.658415e-03	2.728549e-03	1.104069e-02
225           	1.585553e-03	2.731019e-03	1.094834e-02
226           	1.486305e-03	2.733495e-03	1.078516e-02
227           	2.169451e-03	2.736034e-03	1.058468e-02
228           	3.089679e-03	2.738248e-03	1.082668e-02
229           	3.048558e-03	2.739802e-03	1.063525e-02
230           	3.110841e-03	2.741480e-03	1.057064e-02
231           	2.910553e-03	2.743705e-03	1.046295e-02
232           	2.656973e-03	2.746620e-03	1.033075e-02
233           	3.013258e-03	2.749551e-03	1.016941e-02
234           	4.263946e-03	2.752533e-03	1.001052e-02
235           	4.314446e-03	2.755143e-03	9.940126e-03
236           	7.430512e-03	2.757092e-03	1.019074e-02
237           	8.491173e-03	2.759218e-03	9.965910e-03
238           	8.086297e-03	2.761531e-03	9.916563e-03
239           	9.054147e-03	2.764032e-03	9.793223e-03
240           	1.615202e-02	2.766740e-03	9.579027e-03
241           	1.726368e-02	2.770180e-03	9.424293e-03
242           	9.639712e-03	2.772960e-03	9.314201e-03
243           	1.136739e-02	2.775313e-03	9.519818e-03
244           	7.821958e-03	2.777877e-03	9.317124e-03
245           	6.929844e-03	2.780664e-03	9.307088e-03
246           	5.407877e-03	2.783610e-03	9.173599e-03
247           	4.152993e-03	2.786716e-03	9.026165e-03
248           	4.116248e-03	2.788764e-03	8.887438e-03
249           	3.172189e-03	2.791471e-03	8.769070e-03
250           	4.500362e-03	2.794220e-03	8.880825e-03
251           	3.921475e-03	2.797253e-03	8.741551e-03
252           	3.237235e-03	2.800520e-03	8.684817e-03
253           	2.865441e-03	2.803936e-03	8.585263e-03
254           	2.953561e-03	2.804499e-03	8.456077e-03
255           	2.464423e-03	2.807378e-03	8.273936e-03
256           	2.075094e-03	2.810472e-03	8.126994e-03
257           	1.737536e-03	2.813730e-03	7.950640e-03
258           	2.862684e-03	2.817250e-03	8.113683e-03
259           	2.395672e-03	2.821017e-03	8.011617e-03
260           	2.404585e-03	2.823448e-03	7.991666e-03
261           	1.972843e-03	2.823092e-03	7.817019e-03
262           	1.686069e-03	2.826560e-03	7.680102e-03
263           	1.463678e-03	2.830167e-03	7.455274e-03
264           	1.270717e-03	2.833999e-03	7.313444e-03
265           	2.298215e-03	2.838086e-03	7.451124e-03
266           	1.900582e-03	2.842401e-03	7.400331e-03
267           	1.844096e-03	2.842072e-03	7.374692e-03
268           	1.551732e-03	2.844942e-03	7.196035e-03
269           	1.325529e-03	2.848196e-03	6.954587e-03
270           	1.148990e-03	2.852284e-03	6.785514e-03
271           	1.948855e-03	2.856601e-03	6.866848e-03
272           	1.588736e-03	2.861187e-03	6.805145e-03
273           	1.608156e-03	2.863234e-03	6.801707e-03
274           	1.299876e-03	2.866905e-03	6.605874e-03
275           	1.091276e-03	2.870516e-03	6.362245e-03
276           	1.700010e-03	2.874543e-03	6.471261e-03
277           	1.654763e-03	2.879197e-03	6.521354e-03
278           	1.359481e-03	2.882822e-03	6.410778e-03
279           	1.699441e-03	2.886282e-03	6.420639e-03
280           	2.381718e-03	2.888996e-03	6.496822e-03
281           	1.725696e-03	2.891346e-03	6.297743e-03
282           	1.209499e-03	2.892637e-03	6.121011e-03
283           	8.964119e-04	2.892753e-03	5.745041e-03
284           	6.803748e-04	2.892542e-03	5.492968e-03
285           	5.585574e-04	2.892559e-03	5.292813e-03
286           	4.878739e-04	2.892359e-03	5.141262e-03
287           	4.055976e-04	2.892030e-03	4.973477e-03
288           	3.451368e-04	2.891643e-03	4.805961e-03
289           	2.997015e-04	2.891227e-03	4.633732e-03
290           	2.742656e-04	2.890810e-03	4.483098e-03
291           	2.505160e-04	2.890399e-03	4.370441e-03
292           	2.315827e-04	2.890175e-03	4.254980e-03
293           	2.153378e-04	2.890089e-03	4.150141e-03
294           	2.047874e-04	2.890006e-03	4.040125e-03
295           	1.919002e-04	2.889926e-03	3.937120e-03
296           	1.878741e-04	2.889854e-03	3.826407e-03
297           	1.778475e-04	2.889791e-03	3.743239e-03
298           	1.747264e-04	2.889740e-03	3.623495e-03
299           	1.634634e-04	2.889700e-03	3.533813e-03
300           	1.625901e-04	2.889672e-03	3.442571e-03
301           	1.556236e-04	2.889655e-03	3.363960e-03
302           	1.407181e-04	2.889652e-03	3.267792e-03
303           	1.420798e-04	2.889660e-03	3.191949e-03
304           	1.342189e-04	2.889681e-03	3.101610e-03
305           	1.338162e-04	2.889714e-03	3.031244e-03
306           	1.358190e-04	2.889759e-03	2.944415e-03
307           	1.348512e-04	2.889814e-03	2.898223e-03
308           	1.376963e-04	2.889881e-03	2.798680e-03
309           	1.312034e-04	2.889957e-03	2.737031e-03
310           	1.251545e-04	2.890043e-03	2.655818e-03
311           	1.235861e-04	2.890138e-03	2.612543e-03
312           	1.156313e-04	2.890242e-03	2.568233e-03
313           	1.154224e-04	2.890355e-03	2.530684e-03
314           	1.065268e-04	2.890476e-03	2.497911e-03
315           	1.087199e-04	2.890606e-03	2.464063e-03
316           	1.000423e-04	2.890743e-03	2.438667e-03
317           	1.001785e-04	2.890888e-03	2.405882e-03
318           	1.039728e-04	2.891040e-03	2.370284e-03
319           	1.007390e-04	2.891240e-03	2.339648e-03
320           	1.016469e-04	2.891479e-03	2.305371e-03
321           	1.010954e-04	2.891722e-03	2.272298e-03
322           	1.003694e-04	2.891968e-03	2.237692e-03
323           	9.608282e-05	2.892218e-03	2.204828e-03
324           	1.020996e-04	2.892473e-03	2.164878e-03
325           	9.411337e-05	2.892731e-03	2.148003e-03
326           	1.005283e-04	2.892992e-03	2.109352e-03
327           	9.492780e-05	2.893257e-03	2.081746e-03
328           	9.437584e-05	2.893525e-03	2.048161e-03
329           	9.367150e-05	2.893796e-03	2.015433e-03
330           	8.637850e-05	2.894069e-03	1.989101e-03
331           	8.402371e-05	2.894344e-03	1.962600e-03
332           	8.630975e-05	2.894622e-03	1.933314e-03
333           	8.434246e-05	2.894903e-03	1.914381e-03
334           	8.264088e-05	2.895185e-03	1.896950e-03
335           	8.206498e-05	2.895470e-03	1.874449e-03
336           	8.230793e-05	2.895756e-03	1.854366e-03
337           	7.790993e-05	2.896045e-03	1.849587e-03
338           	8.520510e-05	2.896336e-03	1.825641e-03
339           	8.020361e-05	2.896628e-03	1.822062e-03
340           	8.544877e-05	2.896922e-03	1.796476e-03
341           	8.888790e-05	2.897216e-03	1.785281e-03
342           	8.183319e-05	2.897512e-03	1.779138e-03
343           	7.814504e-05	2.897809e-03	1.769406e-03
344           	8.172103e-05	2.898107e-03	1.757821e-03
345           	8.032472e-05	2.898406e-03	1.749923e-03
346           	8.533452e-05	2.898706e-03	1.735601e-03
347           	8.630936e-05	2.899007e-03	1.730244e-03
348           	8.405135e-05	2.899310e-03	1.723428e-03
349           	8.897858e-05	2.899613e-03	1.714540e-03
350           	8.287324e-05	2.899916e-03	1.714018e-03
351           	8.853538e-05	2.900221e-03	1.702520e-03
352           	8.808087e-05	2.900526e-03	1.702474e-03
353           	9.098415e-05	2.900831e-03	1.695481e-03
354           	8.890469e-05	2.901137e-03	1.693091e-03
355           	9.024963e-05	2.901443e-03	1.693829e-03
356           	8.727615e-05	2.901750e-03	1.686808e-03
357           	1.001510e-04	2.902057e-03	1.700354e-03
358           	9.412619e-05	2.902365e-03	1.692516e-03
359           	9.957860e-05	2.902672e-03	1.701015e-03
360           	9.319627e-05	2.902980e-03	1.690946e-03
361           	9.531591e-05	2.903288e-03	1.703400e-03
362           	9.224173e-05	2.903597e-03	1.694778e-03
363           	8.795117e-05	2.903905e-03	1.703367e-03
364           	8.835489e-05	2.904213e-03	1.705603e-03
365           	8.837723e-05	2.904521e-03	1.711747e-03
366           	8.803400e-05	2.904829e-03	1.713783e-03
367           	9.052210e-05	2.905138e-03	1.720604e-03
368           	8.948320e-05	2.905446e-03	1.721810e-03
369           	9.095791e-05	2.905754e-03	1.726945e-03
370           	8.935708e-05	2.906063e-03	1.729066e-03
371           	9.169498e-05	2.906371e-03	1.734653e-03
372           	8.994803e-05	2.906680e-03	1.737886e-03
373           	9.109437e-05	2.906988e-03	1.745246e-03
374           	9.074521e-05	2.907296e-03	1.747068e-03
375           	9.184060e-05	2.907604e-03	1.753981e-03
376           	9.125190e-05	2.907912e-03	1.755636e-03
377           	9.164744e-05	2.908220e-03	1.763181e-03
378           	9.182244e-05	2.908528e-03	1.764672e-03
379           	9.220805e-05	2.908836e-03	1.772188e-03
380           	9.253753e-05	2.909144e-03	1.773764e-03
381           	9.258199e-05	2.909452e-03	1.781955e-03
382           	9.346265e-05	2.909760e-03	1.783492e-03
383           	9.342618e-05	2.910068e-03	1.791163e-03
384           	9.449501e-05	2.910375e-03	1.792079e-03
385           	9.375761e-05	2.910683e-03	1.798867e-03
386           	9.508062e-05	2.910991e-03	1.799360e-03
387           	9.460241e-05	2.911298e-03	1.806041e-03
388           	9.589047e-05	2.911606e-03	1.806739e-03
389           	9.548862e-05	2.911913e-03	1.812715e-03
390           	9.676609e-05	2.912221e-03	1.813438e-03
391           	9.714375e-05	2.912528e-03	1.819804e-03
392           	9.802063e-05	2.912836e-03	1.819204e-03
393           	9.782399e-05	2.913143e-03	1.823731e-03
394           	9.855405e-05	2.913451e-03	1.824203e-03
395           	9.881483e-05	2.913758e-03	1.830531e-03
396           	9.948268e-05	2.914066e-03	1.830952e-03
397           	9.941692e-05	2.914374e-03	1.835047e-03
398           	1.005937e-04	2.914682e-03	1.836445e-03
399           	8.923944e-05	2.914990e-03	1.839610e-03
400           	8.338976e-05	2.915298e-03	1.842968e-03
401           	7.927395e-05	2.915606e-03	1.851584e-03
402           	8.073934e-05	2.915915e-03	1.856521e-03
403           	8.051035e-05	2.916223e-03	1.857286e-03
404           	8.100161e-05	2.916532e-03	1.855513e-03
405           	8.345672e-05	2.916841e-03	1.860437e-03
406           	8.700619e-05	2.917150e-03	1.864364e-03
407           	9.014270e-05	2.917460e-03	1.870047e-03
408           	9.248636e-05	2.917770e-03	1.870818e-03
409           	9.348474e-05	2.918081e-03	1.873169e-03
410           	9.484390e-05	2.918391e-03	1.875078e-03
411           	9.621295e-05	2.918703e-03	1.880504e-03
412           	9.788312e-05	2.919014e-03	1.884690e-03
413           	9.914346e-05	2.919326e-03	1.890436e-03
414           	1.002829e-04	2.919638e-03	1.894766e-03
415           	1.013040e-04	2.919951e-03	1.900940e-03
416           	1.021084e-04	2.920264e-03	1.906360e-03
417           	1.028152e-04	2.920578e-03	1.913222e-03
418           	1.034014e-04	2.920892e-03	1.919148e-03
419           	1.040260e-04	2.921208e-03	1.925735e-03
420           	1.045658e-04	2.921523e-03	1.931167e-03
421           	1.052179e-04	2.921840e-03	1.936799e-03
422           	1.057756e-04	2.922157e-03	1.941439e-03
423           	1.064097e-04	2.922474e-03	1.946119e-03
424           	1.070198e-04	2.922793e-03	1.949960e-03
425           	1.088628e-04	2.923112e-03	1.954393e-03
426           	1.087037e-04	2.923432e-03	1.957137e-03
427           	1.090098e-04	2.923753e-03	1.960188e-03
428           	1.129174e-04	2.924075e-03	1.964076e-03
429           	1.107756e-04	2.924397e-03	1.966092e-03
430           	1.105975e-04	2.924721e-03	1.968792e-03
431           	1.178836e-04	2.925045e-03	1.973262e-03
432           	1.172902e-04	2.925371e-03	1.972431e-03
433           	1.226147e-04	2.925697e-03	1.971567e-03
434           	1.180805e-04	2.926025e-03	1.968855e-03
435           	1.146340e-04	2.926353e-03	1.971877e-03
436           	1.136577e-04	2.926682e-03	1.979767e-03
437           	1.134810e-04	2.927013e-03	1.988147e-03
438           	1.137725e-04	2.927345e-03	1.995339e-03
439           	1.177167e-04	2.927678e-03	2.001085e-03
440           	1.190665e-04	2.928012e-03	2.004576e-03
441           	1.176358e-04	2.928347e-03	2.006139e-03
442           	1.196541e-04	2.928683e-03	2.006658e-03
443           	1.188970e-04	2.929021e-03	2.006336e-03
444           	1.187437e-04	2.929360e-03	2.007916e-03
445           	1.155561e-04	2.929701e-03	2.011274e-03
446           	1.152331e-04	2.930043e-03	2.016967e-03
447           	1.192146e-04	2.930386e-03	2.023304e-03
448           	1.209501e-04	2.930731e-03	2.028189e-03
449           	1.179100e-04	2.931077e-03	2.031225e-03
450           	1.173229e-04	2.931424e-03	2.034658e-03
451           	1.210101e-04	2.931773e-03	2.038941e-03
452           	1.225720e-04	2.932124e-03	2.042390e-03
453           	1.234908e-04	2.932476e-03	2.045148e-03
454           	1.200061e-04	2.932829e-03	2.047280e-03
455           	1.231664e-04	2.933185e-03	2.051172e-03
456           	1.251186e-04	2.933542e-03	2.055170e-03
457           	1.253013e-04	2.933900e-03	2.056548e-03
458           	1.246251e-04	2.934260e-03	2.056870e-03
459           	1.242341e-04	2.934622e-03	2.058326e-03
460           	1.245011e-04	2.934986e-03	2.061770e-03
461           	1.210514e-04	2.935351e-03	2.066415e-03
462           	1.246080e-04	2.935719e-03	2.072432e-03
463           	1.260746e-04	2.936088e-03	2.077994e-03
464           	1.270357e-04	2.936459e-03	2.082491e-03
465           	1.276191e-04	2.936832e-03	2.086287e-03
466           	1.242594e-04	2.937207e-03	2.089600e-03
467           	1.275499e-04	2.937584e-03	2.094119e-03
468           	1.290792e-04	2.937963e-03	2.098482e-03
469           	1.307525e-04	2.938344e-03	2.102617e-03
470           	1.316314e-04	2.938728e-03	2.106544e-03
471           	1.320221e-04	2.939113e-03	2.110456e-03
472           	1.322201e-04	2.939500e-03	2.114486e-03
473           	1.323945e-04	2.939890e-03	2.118664e-03
474           	1.329092e-04	2.940281e-03	2.122973e-03
475           	1.329774e-04	2.940675e-03	2.126179e-03
476           	1.326919e-04	2.941072e-03	2.128506e-03
477           	1.325743e-04	2.941470e-03	2.131015e-03
478           	1.329406e-04	2.941871e-03	2.134540e-03
479           	1.336405e-04	2.942274e-03	2.139036e-03
480           	1.344156e-04	2.942679e-03	2.144064e-03
481           	1.351127e-04	2.943087e-03	2.149234e-03
482           	1.356307e-04	2.943497e-03	2.154031e-03
483           	1.360015e-04	2.943910e-03	2.158931e-03
484           	1.363564e-04	2.944325e-03	2.163852e-03
485           	1.367578e-04	2.944743e-03	2.168763e-03
486           	1.372309e-04	2.945163e-03	2.173615e-03
487           	1.377164e-04	2.945585e-03	2.178423e-03
488           	1.382367e-04	2.946011e-03	2.183193e-03
489           	1.387837e-04	2.946439e-03	2.187913e-03
490           	1.393447e-04	2.946870e-03	2.192590e-03
491           	1.399074e-04	2.947303e-03	2.197219e-03
492           	1.404623e-04	2.947739e-03	2.201919e-03
493           	1.408318e-04	2.948178e-03	2.205866e-03
494           	1.409658e-04	2.948620e-03	2.209046e-03
495           	1.410683e-04	2.949064e-03	2.212155e-03
496           	1.414146e-04	2.949512e-03	2.215844e-03
497           	1.419578e-04	2.949962e-03	2.220356e-03
498           	1.426267e-04	2.950415e-03	2.225448e-03
499           	1.432886e-04	2.950871e-03	2.230840e-03
500           	1.438986e-04	2.951330e-03	2.236272e-03
501           	1.443397e-04	2.951793e-03	2.241319e-03
502           	1.446900e-04	2.952258e-03	2.246430e-03
503           	1.450491e-04	2.952726e-03	2.251631e-03
504           	1.454923e-04	2.953197e-03	2.256861e-03
505           	1.459590e-04	2.953672e-03	2.262074e-03
506           	1.464624e-04	2.954149e-03	2.267228e-03
507           	1.470093e-04	2.954630e-03	2.272309e-03
508           	1.475066e-04	2.955114e-03	2.277383e-03
509           	1.479590e-04	2.955602e-03	2.281820e-03
510           	1.482717e-04	2.956092e-03	2.285573e-03
511           	1.485187e-04	2.956581e-03	2.289097e-03
512           	1.488640e-04	2.957073e-03	2.292942e-03
513           	1.493084e-04	2.957569e-03	2.297438e-03
514           	1.499032e-04	2.958068e-03	2.302436e-03
515           	1.505120e-04	2.958571e-03	2.307469e-03
516           	1.509949e-04	2.959076e-03	2.312770e-03
517           	1.514461e-04	2.959585e-03	2.318228e-03
518           	1.519312e-04	2.960098e-03	2.323768e-03
519           	1.523982e-04	2.960614e-03	2.329286e-03
520           	1.528923e-04	2.961134e-03	2.334770e-03
521           	1.533027e-04	2.961657e-03	2.340242e-03
522           	1.538189e-04	2.962184e-03	2.345259e-03
523           	1.543011e-04	2.962715e-03	2.349736e-03
524           	1.546985e-04	2.963249e-03	2.353914e-03
525           	1.551300e-04	2.963786e-03	2.358210e-03
526           	1.556374e-04	2.964328e-03	2.362630e-03
527           	1.562163e-04	2.964872e-03	2.367614e-03
528           	1.568647e-04	2.965415e-03	2.373086e-03
529           	1.575620e-04	2.965962e-03	2.378810e-03
530           	1.582678e-04	2.966513e-03	2.384601e-03
531           	1.589606e-04	2.967067e-03	2.390367e-03
532           	1.594994e-04	2.967626e-03	2.396068e-03
533           	1.601484e-04	2.968189e-03	2.401383e-03
534           	1.607754e-04	2.968756e-03	2.406221e-03
535           	1.640548e-04	2.969327e-03	2.410761e-03
536           	1.684159e-04	2.969902e-03	2.418633e-03
537           	1.666183e-04	2.970481e-03	2.420570e-03
538           	1.628555e-04	2.971064e-03	2.422322e-03
539           	1.632083e-04	2.971652e-03	2.426619e-03
540           	1.639621e-04	2.972243e-03	2.432629e-03
541           	1.647162e-04	2.972840e-03	2.439241e-03
542           	1.685854e-04	2.973440e-03	2.445639e-03
543           	1.658078e-04	2.974045e-03	2.453260e-03
544           	1.710451e-04	2.974654e-03	2.456382e-03
545           	1.709605e-04	2.975267e-03	2.458693e-03
546           	1.689241e-04	2.975885e-03	2.463863e-03
547           	1.743192e-04	2.976508e-03	2.467000e-03
548           	1.734770e-04	2.977134e-03	2.470825e-03
549           	1.725168e-04	2.977766e-03	2.477487e-03
550           	1.771144e-04	2.978402e-03	2.481559e-03
551           	1.726108e-04	2.979043e-03	2.485090e-03
552           	1.757077e-04	2.979688e-03	2.489618e-03
553           	1.754918e-04	2.980338e-03	2.496274e-03