/*--------------------------------*- C++ -*----------------------------------*\
  =========                 |
  \\      /  F ield         | OpenFOAM: The Open Source CFD Toolbox
   \\    /   O peration     | Website:  https://openfoam.org
    \\  /    A nd           | Version:  10
     \\/     M anipulation  |
\*---------------------------------------------------------------------------*/
FoamFile
{
    format      ascii;
    class       volScalarField;
    location    "2500";
    object      nut;
}
// * * * * * * * * * * * * * * * * * * * * * * * * * * * * * * * * * * * * * //

dimensions      [0 2 -1 0 0 0 0];

internalField   nonuniform List<scalar> 
400
(
1.31584e-10
1.31634e-10
1.31657e-10
1.31611e-10
2.3031e-08
2.30398e-08
2.30437e-08
2.30356e-08
4.78079e-07
4.78263e-07
4.78344e-07
4.78177e-07
3.51236e-06
3.51376e-06
3.51434e-06
3.51312e-06
1.42399e-05
1.4246e-05
1.42483e-05
1.42434e-05
3.87409e-05
3.87586e-05
3.87645e-05
3.87512e-05
7.96337e-05
7.96715e-05
7.96814e-05
7.96552e-05
0.000135107
0.000135169
0.000135182
0.00013514
0.000201663
0.000201743
0.000201758
0.000201697
0.000270651
0.000270694
0.000270722
0.000270654
0.000345671
0.000345706
0.000345734
0.000345643
0.000427184
0.000427215
0.000427236
0.000427109
0.000514979
0.000515005
0.000515013
0.000514832
0.000608982
0.000608994
0.000608984
0.000608733
0.000709365
0.000709368
0.000709338
0.000709002
0.000816692
0.000816705
0.000816661
0.000816223
0.000931961
0.000932004
0.000931973
0.000931406
0.00105626
0.00105636
0.00105637
0.00105564
0.00118984
0.00119002
0.00119008
0.00118911
0.00132926
0.00132948
0.0013295
0.00132813
0.00146256
0.00146256
0.00146209
0.00145991
0.00159127
0.00159127
0.00159078
0.00158834
0.00172184
0.00172185
0.00172135
0.00171866
0.00185374
0.00185375
0.00185325
0.00185031
0.00198641
0.00198642
0.00198592
0.00198275
0.0021193
0.0021193
0.00211883
0.00211543
0.00225188
0.00225187
0.00225143
0.00224783
0.00238364
0.00238362
0.00238321
0.00237944
0.00251414
0.0025141
0.00251373
0.00250982
0.00264296
0.00264289
0.00264256
0.00263857
0.00276978
0.00276966
0.0027693
0.00276536
0.00289429
0.00289412
0.00289371
0.00288989
0.00301628
0.00301608
0.00301565
0.00301191
0.00313546
0.00313547
0.00313494
0.00313129
0.00325164
0.00325225
0.00325152
0.00324791
0.00336511
0.00336591
0.00336532
0.00336171
0.00347584
0.00347639
0.0034763
0.00347267
0.00358382
0.00358419
0.00358442
0.00358082
0.00368915
0.00368929
0.00368973
0.00368622
0.00379196
0.00379173
0.0037923
0.00378893
0.00389247
0.00389158
0.00389226
0.00388907
0.00399015
0.00398898
0.00398975
0.00398673
0.00408532
0.00408405
0.00408486
0.00408206
0.00417812
0.00417693
0.00417765
0.00417516
0.00426866
0.0042679
0.00426841
0.00426614
0.00435695
0.00435607
0.00435729
0.00435509
0.0044429
0.0044426
0.00444429
0.00444213
0.00452749
0.00452742
0.00452948
0.00452738
0.00461048
0.00461064
0.00461295
0.00461091
0.00469189
0.00469228
0.00469476
0.00469282
0.0047719
0.00477235
0.00477494
0.00477317
0.00485053
0.00485092
0.00485357
0.00485203
0.00492782
0.00492805
0.00493072
0.00492944
0.00500385
0.00500382
0.00500645
0.00500543
0.00507868
0.00507836
0.00508084
0.00508003
0.00515226
0.00515173
0.00515409
0.00515323
0.0052249
0.00522366
0.00522651
0.00522499
0.00529703
0.00529423
0.00529823
0.00529532
0.00536689
0.00536351
0.0053688
0.00536424
0.00543485
0.00543117
0.00543724
0.00543188
0.00550107
0.00549703
0.00550367
0.00549818
0.00556563
0.00556103
0.00556821
0.0055631
0.00562854
0.00562315
0.00563094
0.00562663
0.00568966
0.00568358
0.00569166
0.00568874
0.00574862
0.00574302
0.00574986
0.00574948
0.00580474
0.00580134
0.005807
0.00580865
0.00586053
0.00585829
0.00586358
0.00586621
0.0059158
0.00591387
0.00591912
0.00592223
0.00597013
0.00596816
0.00597341
0.00597669
0.0060233
0.00602132
0.00602623
0.00602956
0.00607482
0.00607383
0.00607755
0.00608075
0.00612483
0.00612471
0.00612758
0.00613025
0.00617342
0.00617395
0.00617644
0.00617796
0.00622064
0.00622165
0.00622467
0.00622372
0.00626633
0.00626874
0.00627211
0.00626748
0.00631089
0.00631061
0.00631688
0.00630974
0.00635502
0.00635147
0.00635843
0.00635033
0.00639405
0.00639043
0.00639797
0.00638882
0.00642772
0.00642783
0.00643495
0.00642533
0.00646082
0.00646454
0.00646872
0.00645998
0.00649292
0.00649984
0.00649799
0.00649314
0.00652268
0.00652788
0.00652756
0.00652399
0.00655433
0.00655437
0.00655755
0.00655215
0.00658217
0.00657927
0.00658525
0.00657819
0.00660764
0.00660209
0.00660812
0.00660269
0.00662679
0.00662531
0.00662795
0.00662543
0.0066447
0.00664758
0.0066478
0.00664571
0.0066616
0.00666328
0.00666715
0.00666392
0.0066839
0.00667568
0.00668692
0.00667943
0.00669938
0.00668707
0.00670496
0.00669241
0.00671077
0.00669917
0.00671611
0.00670379
0.00671929
0.00670472
0.00672293
0.00671351
0.00672436
0.00671117
0.00672269
0.00672166
0.00672358
0.00671599
0.00672049
0.00672757
0.00671973
0.00671744
0.00672049
0.00673054
0.00671883
0.00671557
0.00672093
0.0067314
0.00671491
0.00671609
0.00671822
0.00673112
0.00671446
0.00671109
0.00671678
0.00672886
0.00671051
0.00670602
0.00671341
0.00672559
0.00670492
0.00670102
0.00670818
0.00672154
)
;

boundaryField
{
    inlet
    {
        type            cyclic;
    }
    outlet
    {
        type            cyclic;
    }
    fixedWalls-bottom
    {
        type            nutkWallFunction;
        Cmu             0.09;
        kappa           0.41;
        E               9.8;
        value           uniform 0;
    }
    fixedWalls-top
    {
        type            symmetry;
    }
    frontAndBack
    {
        type            empty;
    }
}


// ************************************************************************* //
