/*--------------------------------*- C++ -*----------------------------------*\
  =========                 |
  \\      /  F ield         | OpenFOAM: The Open Source CFD Toolbox
   \\    /   O peration     | Website:  https://openfoam.org
    \\  /    A nd           | Version:  10
     \\/     M anipulation  |
\*---------------------------------------------------------------------------*/
FoamFile
{
    format      ascii;
    class       volSymmTensorField;
    location    "2500";
    object      R;
}
// * * * * * * * * * * * * * * * * * * * * * * * * * * * * * * * * * * * * * //

dimensions      [0 2 -2 0 0 0 0];

internalField   nonuniform List<symmTensor> 
400
(
(4.0063e-07 -2.01386e-09 -0 4.0063e-07 -0 4.0063e-07)
(4.00783e-07 -2.01465e-09 -0 4.00783e-07 -0 4.00783e-07)
(4.00851e-07 -2.01513e-09 -0 4.00851e-07 -0 4.00851e-07)
(4.00711e-07 -2.01435e-09 -0 4.00711e-07 -0 4.00711e-07)
(1.20118e-05 -3.50606e-07 -0 1.20118e-05 -0 1.20118e-05)
(1.20164e-05 -3.50745e-07 -0 1.20164e-05 -0 1.20164e-05)
(1.20185e-05 -3.50824e-07 -0 1.20185e-05 -0 1.20185e-05)
(1.20143e-05 -3.50686e-07 -0 1.20143e-05 -0 1.20143e-05)
(8.48032e-05 -7.21547e-06 -0 8.48032e-05 -0 8.48032e-05)
(8.48357e-05 -7.21836e-06 -0 8.48358e-05 -0 8.48357e-05)
(8.48501e-05 -7.21989e-06 -0 8.48501e-05 -0 8.48501e-05)
(8.48205e-05 -7.21705e-06 -0 8.48205e-05 -0 8.48205e-05)
(0.000303383 -5.19708e-05 -0 0.000303383 -0 0.000303383)
(0.000303499 -5.19924e-05 -0 0.0003035 -0 0.000303499)
(0.00030355 -5.20025e-05 -0 0.00030355 -0 0.00030355)
(0.000303444 -5.19821e-05 -0 0.000303444 -0 0.000303444)
(0.000746748 -0.000201501 -0 0.000746748 -0 0.000746748)
(0.000747031 -0.00020159 -0 0.000747032 -0 0.000747031)
(0.000747148 -0.000201625 -0 0.000747148 -0 0.000747148)
(0.000746891 -0.000201547 -0 0.00074689 -0 0.00074689)
(0.00142282 -0.000505588 -0 0.00142282 -0 0.00142282)
(0.00142333 -0.000505819 -0 0.00142333 -0 0.00142333)
(0.00142353 -0.000505893 -0 0.00142353 -0 0.00142353)
(0.00142305 -0.000505699 -0 0.00142305 -0 0.00142305)
(0.00223643 -0.000925017 -0 0.00223643 -0 0.00223643)
(0.00223714 -0.000925431 -0 0.00223715 -0 0.00223714)
(0.00223739 -0.000925527 -0 0.00223739 -0 0.00223739)
(0.00223668 -0.000925194 -0 0.00223668 -0 0.00223668)
(0.00305617 -0.00136498 -0 0.00305618 -0 0.00305618)
(0.00305698 -0.00136553 -0 0.00305699 -0 0.00305699)
(0.00305726 -0.00136562 -0 0.00305726 -0 0.00305726)
(0.00305633 -0.00136516 -0 0.00305632 -0 0.00305633)
(0.00379437 -0.0017613 -0 0.00379438 -0 0.00379438)
(0.00379516 -0.00176192 -0 0.00379517 -0 0.00379517)
(0.00379545 -0.00176199 -0 0.00379544 -0 0.00379544)
(0.00379432 -0.00176139 -0 0.00379431 -0 0.00379431)
(0.00441982 -0.00205522 -0 0.00441984 -0 0.00441983)
(0.00442057 -0.00205557 -0 0.00442058 -0 0.00442057)
(0.00442083 -0.00205568 -0 0.00442082 -0 0.00442083)
(0.00441947 -0.00205505 -0 0.00441947 -0 0.00441947)
(0.00493864 -0.00229648 -0 0.00493867 -0 0.00493865)
(0.00493936 -0.00229681 -0 0.00493937 -0 0.00493936)
(0.00493956 -0.00229689 -0 0.00493954 -0 0.00493955)
(0.00493791 -0.00229613 -0 0.0049379 -0 0.00493791)
(0.00536058 -0.00249269 -0 0.00536062 -0 0.0053606)
(0.00536127 -0.002493 -0 0.00536128 -0 0.00536128)
(0.00536138 -0.00249304 -0 0.00536134 -0 0.00536136)
(0.00535937 -0.00249211 -0 0.00535936 -0 0.00535937)
(0.00569818 -0.0026497 -0 0.00569823 -0 0.00569821)
(0.00569885 -0.00265 -0 0.00569887 -0 0.00569886)
(0.00569883 -0.00264998 -0 0.00569878 -0 0.00569881)
(0.00569641 -0.00264886 -0 0.0056964 -0 0.0056964)
(0.00596435 -0.00277353 -0 0.00596442 -0 0.00596439)
(0.00596494 -0.00277379 -0 0.00596497 -0 0.00596495)
(0.00596478 -0.0027737 -0 0.00596471 -0 0.00596475)
(0.00596192 -0.00277238 -0 0.0059619 -0 0.00596191)
(0.00617089 -0.00286958 -0 0.00617097 -0 0.00617093)
(0.00617141 -0.00286981 -0 0.00617144 -0 0.00617143)
(0.00617111 -0.00286965 -0 0.00617103 -0 0.00617107)
(0.00616778 -0.00286811 -0 0.00616775 -0 0.00616776)
(0.00632818 -0.00294266 -0 0.00632828 -0 0.00632823)
(0.00632869 -0.00294288 -0 0.00632873 -0 0.00632871)
(0.00632828 -0.00294266 -0 0.00632817 -0 0.00632823)
(0.00632444 -0.00294089 -0 0.0063244 -0 0.00632442)
(0.00644529 -0.0029971 -0 0.00644541 -0 0.00644535)
(0.00644578 -0.00299731 -0 0.00644583 -0 0.00644581)
(0.00644536 -0.00299707 -0 0.00644523 -0 0.0064453)
(0.00644097 -0.00299505 -0 0.00644092 -0 0.00644094)
(0.00653005 -0.00303651 -0 0.0065302 -0 0.00653012)
(0.00653054 -0.00303671 -0 0.00653058 -0 0.00653056)
(0.00653015 -0.00303649 -0 0.00652999 -0 0.00653007)
(0.00652521 -0.00303422 -0 0.00652516 -0 0.00652519)
(0.0065893 -0.00306407 -0 0.00658948 -0 0.00658939)
(0.00658978 -0.00306426 -0 0.00658982 -0 0.0065898)
(0.00658943 -0.00306404 -0 0.00658925 -0 0.00658934)
(0.00658401 -0.00306155 -0 0.00658397 -0 0.00658399)
(0.00662886 -0.00308247 -0 0.00662907 -0 0.00662897)
(0.00662933 -0.00308265 -0 0.00662936 -0 0.00662934)
(0.00662903 -0.00308245 -0 0.00662882 -0 0.00662892)
(0.00662318 -0.00307977 -0 0.00662315 -0 0.00662316)
(0.00665333 -0.00307942 -0 0.00665353 -0 0.00665343)
(0.00665377 -0.00307913 -0 0.00665379 -0 0.00665378)
(0.00665349 -0.00307824 -0 0.00665329 -0 0.00665339)
(0.00664726 -0.00307474 -0 0.00664724 -0 0.00664725)
(0.00666633 -0.00306203 -0 0.00666652 -0 0.00666642)
(0.00666673 -0.00306176 -0 0.00666675 -0 0.00666674)
(0.00666648 -0.00306102 -0 0.00666629 -0 0.00666639)
(0.00665992 -0.00305765 -0 0.0066599 -0 0.00665991)
(0.00667034 -0.0030391 -0 0.0066705 -0 0.00667042)
(0.0066707 -0.00303877 -0 0.00667072 -0 0.00667071)
(0.00667046 -0.00303799 -0 0.0066703 -0 0.00667038)
(0.00666357 -0.00303451 -0 0.00666355 -0 0.00666356)
(0.00666726 -0.00300958 -0 0.0066674 -0 0.00666733)
(0.00666759 -0.00300922 -0 0.0066676 -0 0.0066676)
(0.00666736 -0.00300842 -0 0.00666722 -0 0.00666729)
(0.00666014 -0.00300486 -0 0.00666013 -0 0.00666013)
(0.00665867 -0.00297438 -0 0.00665879 -0 0.00665873)
(0.00665897 -0.00297402 -0 0.00665897 -0 0.00665897)
(0.00665875 -0.00297324 -0 0.00665863 -0 0.00665869)
(0.0066512 -0.00296961 -0 0.0066512 -0 0.0066512)
(0.00664586 -0.00293433 -0 0.00664596 -0 0.00664591)
(0.00664614 -0.00293398 -0 0.00664613 -0 0.00664613)
(0.00664592 -0.00293323 -0 0.00664582 -0 0.00664587)
(0.00663805 -0.00292957 -0 0.00663806 -0 0.00663806)
(0.00662991 -0.00289012 -0 0.00662999 -0 0.00662995)
(0.00663015 -0.00288979 -0 0.00663013 -0 0.00663014)
(0.00662993 -0.00288911 -0 0.00662985 -0 0.00662989)
(0.00662176 -0.00288542 -0 0.00662178 -0 0.00662177)
(0.00661167 -0.00284241 -0 0.00661173 -0 0.0066117)
(0.00661187 -0.00284209 -0 0.00661183 -0 0.00661185)
(0.00661165 -0.00284149 -0 0.00661158 -0 0.00661161)
(0.00660319 -0.00283782 -0 0.00660323 -0 0.00660321)
(0.00659185 -0.00279176 -0 0.0065919 -0 0.00659187)
(0.00659199 -0.00279144 -0 0.00659194 -0 0.00659196)
(0.00659175 -0.00279094 -0 0.0065917 -0 0.00659173)
(0.00658306 -0.00278731 -0 0.0065831 -0 0.00658308)
(0.00657102 -0.0027387 -0 0.00657105 -0 0.00657103)
(0.00657108 -0.00273836 -0 0.00657102 -0 0.00657105)
(0.00657079 -0.00273796 -0 0.00657076 -0 0.00657078)
(0.00656192 -0.0027344 -0 0.00656198 -0 0.00656195)
(0.00654963 -0.00268367 -0 0.00654965 -0 0.00654964)
(0.00654959 -0.00268331 -0 0.00654952 -0 0.00654956)
(0.00654922 -0.00268296 -0 0.0065492 -0 0.00654921)
(0.00654026 -0.00267957 -0 0.00654033 -0 0.00654029)
(0.00652803 -0.00262707 -0 0.00652804 -0 0.00652803)
(0.00652791 -0.00262675 -0 0.00652783 -0 0.00652787)
(0.00652737 -0.00262637 -0 0.00652736 -0 0.00652737)
(0.00651842 -0.00262321 -0 0.0065185 -0 0.00651846)
(0.00650645 -0.00256924 -0 0.00650645 -0 0.00650645)
(0.00650636 -0.00256906 -0 0.00650628 -0 0.00650632)
(0.00650556 -0.00256861 -0 0.00650556 -0 0.00650556)
(0.0064967 -0.00256567 -0 0.00649679 -0 0.00649674)
(0.006485 -0.00251046 -0 0.006485 -0 0.006485)
(0.0064853 -0.00251057 -0 0.00648521 -0 0.00648526)
(0.00648411 -0.00251 -0 0.00648411 -0 0.00648411)
(0.00647529 -0.00250731 -0 0.00647539 -0 0.00647534)
(0.00646359 -0.00245103 -0 0.00646359 -0 0.00646359)
(0.00646505 -0.0024516 -0 0.00646495 -0 0.006465)
(0.00646324 -0.00245089 -0 0.00646325 -0 0.00646325)
(0.00645436 -0.0024484 -0 0.00645446 -0 0.00645441)
(0.0064431 -0.00239148 -0 0.00644309 -0 0.0064431)
(0.0064448 -0.0023921 -0 0.00644469 -0 0.00644474)
(0.0064431 -0.00239153 -0 0.00644311 -0 0.00644311)
(0.00643404 -0.00238921 -0 0.00643414 -0 0.00643409)
(0.00642349 -0.00233197 -0 0.00642348 -0 0.00642349)
(0.00642461 -0.00233235 -0 0.0064245 -0 0.00642455)
(0.0064237 -0.00233217 -0 0.00642371 -0 0.0064237)
(0.0064144 -0.00232996 -0 0.00641452 -0 0.00641446)
(0.00640479 -0.00227267 -0 0.00640477 -0 0.00640478)
(0.00640544 -0.00227291 -0 0.00640532 -0 0.00640538)
(0.00640495 -0.00227297 -0 0.00640497 -0 0.00640496)
(0.00639552 -0.00227088 -0 0.00639564 -0 0.00639558)
(0.00638703 -0.00221377 -0 0.00638701 -0 0.00638702)
(0.0063872 -0.0022139 -0 0.00638707 -0 0.00638713)
(0.00638691 -0.0022141 -0 0.00638693 -0 0.00638692)
(0.00637744 -0.00221213 -0 0.00637756 -0 0.0063775)
(0.00637033 -0.00215547 -0 0.0063703 -0 0.00637031)
(0.00636981 -0.00215544 -0 0.00636968 -0 0.00636974)
(0.00636959 -0.00215575 -0 0.00636961 -0 0.0063696)
(0.00636016 -0.00215388 -0 0.00636028 -0 0.00636022)
(0.00635485 -0.00209799 -0 0.00635482 -0 0.00635484)
(0.00635323 -0.00209763 -0 0.0063531 -0 0.00635316)
(0.00635302 -0.00209805 -0 0.00635305 -0 0.00635303)
(0.00634367 -0.00209625 -0 0.00634379 -0 0.00634373)
(0.00633955 -0.00204112 -0 0.00633952 -0 0.00633954)
(0.0063375 -0.00204057 -0 0.00633738 -0 0.00633744)
(0.00633725 -0.00204111 -0 0.00633728 -0 0.00633726)
(0.00632794 -0.00203937 -0 0.00632807 -0 0.00632801)
(0.00632471 -0.00198497 -0 0.00632468 -0 0.00632469)
(0.00632256 -0.00198443 -0 0.00632244 -0 0.0063225)
(0.0063222 -0.00198498 -0 0.00632223 -0 0.00632221)
(0.00631298 -0.00198334 -0 0.0063131 -0 0.00631304)
(0.00631035 -0.00192967 -0 0.00631033 -0 0.00631034)
(0.00630835 -0.00192929 -0 0.00630823 -0 0.00630829)
(0.0063077 -0.00192967 -0 0.00630773 -0 0.00630772)
(0.00629872 -0.00192826 -0 0.00629884 -0 0.00629878)
(0.00629639 -0.00187529 -0 0.00629637 -0 0.00629638)
(0.00629505 -0.00187519 -0 0.00629494 -0 0.006295)
(0.00629396 -0.00187536 -0 0.00629398 -0 0.00629397)
(0.00628508 -0.00187417 -0 0.00628519 -0 0.00628514)
(0.00628259 -0.00182187 -0 0.00628258 -0 0.00628259)
(0.00628114 -0.00182172 -0 0.00628103 -0 0.00628108)
(0.00628095 -0.00182213 -0 0.00628096 -0 0.00628095)
(0.00627198 -0.00182111 -0 0.00627209 -0 0.00627203)
(0.00626859 -0.00176936 -0 0.00626858 -0 0.00626859)
(0.0062681 -0.00176944 -0 0.00626799 -0 0.00626804)
(0.00626842 -0.00177 -0 0.00626843 -0 0.00626842)
(0.00625935 -0.00176914 -0 0.00625945 -0 0.0062594)
(0.00625562 -0.00171819 -0 0.00625561 -0 0.00625562)
(0.0062556 -0.00171833 -0 0.0062555 -0 0.00625555)
(0.00625626 -0.00171901 -0 0.00625627 -0 0.00625626)
(0.0062471 -0.00171828 -0 0.00624721 -0 0.00624716)
(0.00624331 -0.00166824 -0 0.0062433 -0 0.00624331)
(0.00624352 -0.00166841 -0 0.00624341 -0 0.00624347)
(0.00624437 -0.00166917 -0 0.00624438 -0 0.00624437)
(0.00623516 -0.00166854 -0 0.00623527 -0 0.00623522)
(0.00623143 -0.00161949 -0 0.00623141 -0 0.00623142)
(0.00623171 -0.00161968 -0 0.0062316 -0 0.00623166)
(0.00623264 -0.00162048 -0 0.00623266 -0 0.00623265)
(0.00622344 -0.00161995 -0 0.00622355 -0 0.0062235)
(0.00621979 -0.00157195 -0 0.00621976 -0 0.00621978)
(0.00622006 -0.00157214 -0 0.00621995 -0 0.00622001)
(0.00622099 -0.00157294 -0 0.00622101 -0 0.006221)
(0.00621184 -0.00157251 -0 0.00621195 -0 0.0062119)
(0.00620825 -0.00152559 -0 0.00620822 -0 0.00620823)
(0.00620846 -0.00152577 -0 0.00620835 -0 0.0062084)
(0.00620933 -0.00152655 -0 0.00620935 -0 0.00620934)
(0.00620027 -0.00152621 -0 0.00620038 -0 0.00620033)
(0.0061967 -0.00148039 -0 0.00619667 -0 0.00619669)
(0.00619681 -0.00148057 -0 0.00619669 -0 0.00619675)
(0.0061976 -0.00148131 -0 0.00619764 -0 0.00619762)
(0.00618863 -0.00148104 -0 0.00618874 -0 0.00618869)
(0.00618508 -0.00143634 -0 0.00618505 -0 0.00618507)
(0.00618503 -0.00143651 -0 0.00618492 -0 0.00618497)
(0.00618578 -0.0014372 -0 0.00618582 -0 0.0061858)
(0.00617682 -0.00143699 -0 0.00617693 -0 0.00617688)
(0.00617336 -0.00139344 -0 0.00617332 -0 0.00617334)
(0.00617306 -0.00139359 -0 0.00617295 -0 0.00617301)
(0.00617385 -0.00139421 -0 0.00617389 -0 0.00617387)
(0.00616474 -0.00139404 -0 0.00616485 -0 0.0061648)
(0.00616158 -0.00135166 -0 0.00616153 -0 0.00616156)
(0.00616083 -0.00135178 -0 0.00616073 -0 0.00616078)
(0.00616186 -0.00135236 -0 0.0061619 -0 0.00616188)
(0.00615229 -0.00135215 -0 0.00615239 -0 0.00615234)
(0.00614989 -0.00131102 -0 0.00614984 -0 0.00614987)
(0.00614827 -0.00131097 -0 0.00614817 -0 0.00614822)
(0.00614993 -0.00131169 -0 0.00614997 -0 0.00614995)
(0.00613934 -0.00131128 -0 0.00613943 -0 0.00613939)
(0.00613864 -0.00127159 -0 0.0061386 -0 0.00613862)
(0.00613524 -0.00127109 -0 0.00613516 -0 0.0061352)
(0.00613815 -0.00127217 -0 0.0061382 -0 0.00613818)
(0.00612581 -0.0012714 -0 0.00612589 -0 0.00612585)
(0.00612571 -0.00123289 -0 0.00612566 -0 0.00612569)
(0.00612173 -0.00123211 -0 0.00612166 -0 0.0061217)
(0.00612594 -0.0012336 -0 0.00612599 -0 0.00612596)
(0.00611164 -0.0012325 -0 0.00611171 -0 0.00611168)
(0.00611148 -0.00119502 -0 0.00611141 -0 0.00611144)
(0.00610729 -0.00119407 -0 0.00610723 -0 0.00610726)
(0.00611213 -0.00119575 -0 0.0061122 -0 0.00611216)
(0.00609692 -0.00119455 -0 0.00609698 -0 0.00609695)
(0.00609611 -0.00115799 -0 0.00609602 -0 0.00609606)
(0.00609171 -0.00115696 -0 0.00609165 -0 0.00609168)
(0.00609682 -0.0011587 -0 0.00609691 -0 0.00609687)
(0.00608153 -0.00115749 -0 0.00608158 -0 0.00608156)
(0.00607967 -0.00112178 -0 0.00607957 -0 0.00607962)
(0.0060749 -0.00112069 -0 0.00607486 -0 0.00607488)
(0.00608016 -0.00112245 -0 0.00608026 -0 0.00608021)
(0.00606539 -0.00112129 -0 0.00606544 -0 0.00606542)
(0.00606216 -0.00108631 -0 0.00606206 -0 0.00606211)
(0.0060569 -0.00108522 -0 0.00605685 -0 0.00605687)
(0.00606219 -0.0010869 -0 0.0060623 -0 0.00606224)
(0.00604844 -0.00108589 -0 0.00604848 -0 0.00604846)
(0.00604345 -0.00105151 -0 0.00604335 -0 0.0060434)
(0.00603779 -0.00105051 -0 0.00603775 -0 0.00603777)
(0.00604273 -0.00105198 -0 0.00604283 -0 0.00604278)
(0.00603065 -0.00105126 -0 0.00603069 -0 0.00603067)
(0.0060232 -0.00101727 -0 0.0060231 -0 0.00602315)
(0.00601795 -0.0010165 -0 0.00601792 -0 0.00601793)
(0.00602134 -0.0010176 -0 0.00602144 -0 0.00602139)
(0.00601203 -0.00101735 -0 0.00601206 -0 0.00601205)
(0.00600075 -0.000983461 -0 0.00600066 -0 0.00600071)
(0.00599753 -0.000983109 -0 0.0059975 -0 0.00599752)
(0.00599955 -0.000983965 -0 0.00599964 -0 0.0059996)
(0.00599237 -0.000984073 -0 0.0059924 -0 0.00599239)
(0.0059787 -0.000950449 -0 0.00597862 -0 0.00597866)
(0.00597631 -0.000950327 -0 0.00597629 -0 0.0059763)
(0.00597786 -0.000951094 -0 0.00597794 -0 0.00597789)
(0.00597162 -0.000951376 -0 0.00597164 -0 0.00597163)
(0.00595642 -0.000918129 -0 0.00595635 -0 0.00595638)
(0.00595435 -0.000918121 -0 0.00595434 -0 0.00595434)
(0.00595585 -0.000918838 -0 0.00595592 -0 0.00595588)
(0.00594981 -0.000919215 -0 0.00594983 -0 0.00594982)
(0.00593354 -0.000886407 -0 0.00593348 -0 0.00593351)
(0.00593165 -0.000886447 -0 0.00593165 -0 0.00593165)
(0.00593328 -0.000887106 -0 0.00593334 -0 0.00593331)
(0.00592698 -0.000887537 -0 0.00592698 -0 0.00592698)
(0.00590989 -0.000855222 -0 0.00590983 -0 0.00590986)
(0.00590825 -0.000855236 -0 0.00590826 -0 0.00590825)
(0.00590997 -0.000855832 -0 0.00591003 -0 0.00591)
(0.00590312 -0.000856285 -0 0.00590311 -0 0.00590311)
(0.00588542 -0.000824456 -0 0.00588536 -0 0.00588539)
(0.00588417 -0.000824489 -0 0.00588419 -0 0.00588418)
(0.00588584 -0.000824966 -0 0.0058859 -0 0.00588587)
(0.00587823 -0.000825396 -0 0.00587821 -0 0.00587822)
(0.0058602 -0.000794035 -0 0.00586013 -0 0.00586017)
(0.0058595 -0.000794056 -0 0.00585952 -0 0.00585951)
(0.00586087 -0.000794461 -0 0.00586093 -0 0.0058609)
(0.00585231 -0.00079481 -0 0.00585228 -0 0.0058523)
(0.00583433 -0.000763839 -0 0.00583426 -0 0.0058343)
(0.00583435 -0.000763902 -0 0.00583438 -0 0.00583436)
(0.00583516 -0.000764244 -0 0.00583523 -0 0.00583519)
(0.00582536 -0.000764466 -0 0.00582533 -0 0.00582535)
(0.00580791 -0.000733816 -0 0.00580783 -0 0.00580787)
(0.0058089 -0.000733945 -0 0.00580893 -0 0.00580891)
(0.0058089 -0.000734297 -0 0.00580898 -0 0.00580894)
(0.00579738 -0.000734292 -0 0.00579735 -0 0.00579737)
(0.00578079 -0.000703976 -0 0.00578071 -0 0.00578075)
(0.00578337 -0.000704202 -0 0.00578339 -0 0.00578338)
(0.00578242 -0.000704576 -0 0.00578251 -0 0.00578247)
(0.00576833 -0.00070422 -0 0.0057683 -0 0.00576831)
(0.0057533 -0.000674295 -0 0.0057532 -0 0.00575325)
(0.00575324 -0.000674136 -0 0.00575327 -0 0.00575325)
(0.00575528 -0.00067486 -0 0.00575538 -0 0.00575533)
(0.00573833 -0.000674235 -0 0.0057383 -0 0.00573832)
(0.00572609 -0.000644714 -0 0.00572598 -0 0.00572604)
(0.00572272 -0.000644211 -0 0.00572274 -0 0.00572273)
(0.00572638 -0.000645012 -0 0.0057265 -0 0.00572644)
(0.00570751 -0.00064427 -0 0.00570748 -0 0.0057075)
(0.00569509 -0.000614688 -0 0.00569497 -0 0.00569503)
(0.00569181 -0.000614271 -0 0.00569183 -0 0.00569182)
(0.00569565 -0.000615046 -0 0.00569578 -0 0.00569572)
(0.00567594 -0.00061424 -0 0.00567592 -0 0.00567593)
(0.00566033 -0.000584198 -0 0.0056602 -0 0.00566027)
(0.0056606 -0.000584227 -0 0.00566062 -0 0.00566061)
(0.00566324 -0.000584867 -0 0.00566337 -0 0.00566331)
(0.00564367 -0.0005841 -0 0.00564365 -0 0.00564366)
(0.00562629 -0.000553673 -0 0.00562615 -0 0.00562622)
(0.00562894 -0.000554065 -0 0.00562897 -0 0.00562896)
(0.00562926 -0.000554406 -0 0.00562941 -0 0.00562934)
(0.00561076 -0.000553789 -0 0.00561074 -0 0.00561075)
(0.00559255 -0.00052306 -0 0.0055924 -0 0.00559248)
(0.00559611 -0.000523685 -0 0.00559613 -0 0.00559612)
(0.00559383 -0.000523527 -0 0.00559398 -0 0.0055939)
(0.00557731 -0.000523265 -0 0.00557728 -0 0.00557729)
(0.00555926 -0.000492226 -0 0.0055591 -0 0.00555918)
(0.00555906 -0.000492559 -0 0.00555909 -0 0.00555908)
(0.00555947 -0.000492586 -0 0.00555963 -0 0.00555955)
(0.0055431 -0.0004924 -0 0.00554307 -0 0.00554308)
(0.00552732 -0.000461324 -0 0.00552714 -0 0.00552723)
(0.00552269 -0.000461121 -0 0.00552272 -0 0.0055227)
(0.00552587 -0.000461496 -0 0.00552605 -0 0.00552596)
(0.00550824 -0.000461112 -0 0.00550822 -0 0.00550823)
(0.00549304 -0.000429727 -0 0.00549286 -0 0.00549295)
(0.00548653 -0.000429392 -0 0.00548655 -0 0.00548654)
(0.00549153 -0.000429921 -0 0.00549171 -0 0.00549162)
(0.00547314 -0.000429383 -0 0.00547311 -0 0.00547313)
(0.00545755 -0.000397517 -0 0.00545736 -0 0.00545745)
(0.00545061 -0.000397211 -0 0.00545064 -0 0.00545063)
(0.00545494 -0.00039761 -0 0.00545512 -0 0.00545503)
(0.00543819 -0.000397173 -0 0.00543816 -0 0.00543818)
(0.00542101 -0.000364471 -0 0.00542083 -0 0.00542092)
(0.00541582 -0.000364514 -0 0.00541586 -0 0.00541584)
(0.00541833 -0.000364639 -0 0.00541851 -0 0.00541842)
(0.00540325 -0.000364396 -0 0.00540322 -0 0.00540323)
(0.00538294 -0.00033085 -0 0.00538277 -0 0.00538286)
(0.00538295 -0.000331141 -0 0.00538299 -0 0.00538297)
(0.00538284 -0.000331119 -0 0.00538301 -0 0.00538293)
(0.00536836 -0.000330948 -0 0.00536832 -0 0.00536834)
(0.00534844 -0.000296616 -0 0.00534827 -0 0.00534835)
(0.00534634 -0.000296814 -0 0.00534639 -0 0.00534636)
(0.00534931 -0.000296954 -0 0.00534948 -0 0.0053494)
(0.00533362 -0.000296781 -0 0.00533357 -0 0.00533359)
(0.00531764 -0.00026193 -0 0.00531747 -0 0.00531755)
(0.00531023 -0.000261674 -0 0.00531029 -0 0.00531026)
(0.00531748 -0.000262087 -0 0.00531765 -0 0.00531757)
(0.00529915 -0.000261802 -0 0.00529909 -0 0.00529912)
(0.00528541 -0.000226187 -0 0.00528524 -0 0.00528532)
(0.00527568 -0.000225757 -0 0.00527573 -0 0.00527571)
(0.00528587 -0.00022635 -0 0.00528605 -0 0.00528596)
(0.00526526 -0.000225946 -0 0.00526521 -0 0.00526523)
(0.00525278 -0.000189434 -0 0.0052526 -0 0.00525269)
(0.00524166 -0.000189077 -0 0.00524172 -0 0.00524169)
(0.00525276 -0.000189534 -0 0.00525294 -0 0.00525285)
(0.0052324 -0.00018915 -0 0.00523235 -0 0.00523237)
(0.00522035 -0.000151591 -0 0.00522018 -0 0.00522026)
(0.00520819 -0.000151305 -0 0.00520824 -0 0.00520821)
(0.00521876 -0.00015164 -0 0.00521893 -0 0.00521884)
(0.00520071 -0.000151315 -0 0.00520066 -0 0.00520068)
(0.00518832 -0.000112568 -0 0.00518817 -0 0.00518824)
(0.00517611 -0.000112428 -0 0.00517616 -0 0.00517613)
(0.00518363 -0.000112524 -0 0.00518378 -0 0.00518371)
(0.00517049 -0.00011234 -0 0.00517044 -0 0.00517047)
(0.00515638 -7.22604e-05 -0 0.00515624 -0 0.00515631)
(0.00514595 -7.22607e-05 -0 0.005146 -0 0.00514597)
(0.0051501 -7.22072e-05 -0 0.00515023 -0 0.00515017)
(0.00514169 -7.20972e-05 -0 0.00514164 -0 0.00514166)
(0.00512353 -3.06239e-05 -0 0.00512341 -0 0.00512347)
(0.00511814 -3.07011e-05 -0 0.00511819 -0 0.00511817)
(0.00511993 -3.05829e-05 -0 0.00512005 -0 0.00511999)
(0.00511456 -3.0455e-05 -0 0.00511451 -0 0.00511454)
(0.00509552 1.24624e-05 -0 0.00509543 -0 0.00509548)
(0.00509246 1.23831e-05 -0 0.0050925 -0 0.00509248)
(0.00509319 1.25538e-05 -0 0.00509329 -0 0.00509324)
(0.0050895 1.27272e-05 -0 0.00508945 -0 0.00508947)
(0.00507143 5.72146e-05 -0 0.00507136 -0 0.00507139)
(0.0050694 5.71922e-05 -0 0.00506943 -0 0.00506942)
(0.00506963 5.73947e-05 -0 0.0050697 -0 0.00506967)
(0.00506688 5.76291e-05 -0 0.00506685 -0 0.00506686)
(0.00505093 0.000103735 -0 0.00505088 -0 0.00505091)
(0.00504929 0.000103723 -0 0.00504931 -0 0.0050493)
(0.00504926 0.000103996 -0 0.00504931 -0 0.00504929)
(0.00504706 0.00010426 -0 0.00504704 -0 0.00504705)
(0.00503399 0.000152253 -0 0.00503395 -0 0.00503397)
(0.0050324 0.000152251 -0 0.0050324 -0 0.0050324)
(0.00503221 0.000152566 -0 0.00503225 -0 0.00503223)
(0.00503033 0.000152832 -0 0.00503033 -0 0.00503033)
(0.0050207 8.83912e-05 -0 0.00502067 -0 0.00502069)
(0.00501898 8.83954e-05 -0 0.00501897 -0 0.00501897)
(0.00501868 8.8551e-05 -0 0.00501871 -0 0.0050187)
(0.00501698 8.86917e-05 -0 0.005017 -0 0.00501699)
)
;

boundaryField
{
    inlet
    {
        type            cyclic;
    }
    outlet
    {
        type            cyclic;
    }
    fixedWalls-bottom
    {
        type            kqRWallFunction;
        value           nonuniform List<symmTensor> 4((4.0063e-07 -0 -0 4.0063e-07 -0 4.0063e-07) (4.00783e-07 -0 -0 4.00783e-07 -0 4.00783e-07) (4.00851e-07 -0 -0 4.00851e-07 -0 4.00851e-07) (4.00711e-07 -0 -0 4.00711e-07 -0 4.00711e-07));
    }
    fixedWalls-top
    {
        type            symmetry;
    }
    frontAndBack
    {
        type            empty;
    }
}


// ************************************************************************* //
