/*--------------------------------*- C++ -*----------------------------------*\
  =========                 |
  \\      /  F ield         | OpenFOAM: The Open Source CFD Toolbox
   \\    /   O peration     | Website:  https://openfoam.org
    \\  /    A nd           | Version:  10
     \\/     M anipulation  |
\*---------------------------------------------------------------------------*/
FoamFile
{
    format      ascii;
    class       volScalarField;
    location    "2500";
    object      omega;
}
// * * * * * * * * * * * * * * * * * * * * * * * * * * * * * * * * * * * * * //

dimensions      [0 0 -1 0 0 0 0];

internalField   nonuniform List<scalar> 
400
(
1472.77
1472.77
1472.77
1472.77
284.603
284.603
284.603
284.602
117.728
117.728
117.729
117.729
63.8608
63.8608
63.8612
63.8611
40.8956
40.8956
40.8957
40.8956
29.3177
29.3178
29.3178
29.3175
22.6626
22.6626
22.6625
22.6621
18.4388
18.4389
18.4387
18.4382
15.5529
15.553
15.5527
15.5521
13.4684
13.4686
13.4682
13.4676
11.8972
11.8974
11.897
11.8963
10.6725
10.6726
10.6723
10.6715
9.69188
9.69203
9.69166
9.69083
8.88933
8.88946
8.8891
8.88825
8.22046
8.22056
8.22022
8.21936
7.6544
7.65447
7.65415
7.65328
7.16906
7.16907
7.16881
7.16792
6.74823
6.74818
6.74797
6.74706
6.37972
6.37964
6.37946
6.37854
6.05424
6.05416
6.05399
6.05307
5.76458
5.76449
5.76434
5.76342
5.50503
5.50495
5.5048
5.5039
5.27105
5.27098
5.27083
5.26994
5.05895
5.0589
5.05874
5.05788
4.86573
4.86571
4.86555
4.86471
4.68893
4.68894
4.68876
4.68793
4.52648
4.5265
4.52631
4.52549
4.37663
4.37666
4.37646
4.37566
4.23793
4.23796
4.23776
4.23698
4.10912
4.10915
4.10896
4.10819
3.98915
3.98917
3.98899
3.98823
3.87708
3.87711
3.87693
3.87618
3.77213
3.77216
3.77198
3.77125
3.67361
3.67363
3.67347
3.67274
3.58092
3.58092
3.58078
3.58006
3.49352
3.49351
3.49338
3.49268
3.41096
3.41093
3.41081
3.41011
3.33281
3.33276
3.33264
3.33196
3.25869
3.25865
3.25853
3.25786
3.18829
3.18825
3.18813
3.18747
3.12132
3.12128
3.12116
3.12051
3.05752
3.05748
3.05736
3.05671
2.99664
2.9966
2.99649
2.99585
2.93849
2.93845
2.93834
2.93771
2.88286
2.88283
2.88271
2.88209
2.8296
2.82956
2.82945
2.82884
2.77853
2.77849
2.77838
2.77778
2.72952
2.72948
2.72937
2.72878
2.68244
2.6824
2.6823
2.68171
2.63717
2.63713
2.63703
2.63645
2.5936
2.59356
2.59346
2.59289
2.55164
2.5516
2.5515
2.55094
2.51119
2.51115
2.51106
2.5105
2.47217
2.47214
2.47204
2.47149
2.4345
2.43449
2.43439
2.43385
2.39813
2.39813
2.39802
2.39748
2.36298
2.363
2.36287
2.36234
2.329
2.32902
2.32889
2.32837
2.29613
2.29616
2.29602
2.2955
2.26432
2.26435
2.26421
2.2637
2.23353
2.23355
2.23342
2.23291
2.20371
2.20373
2.2036
2.20309
2.17482
2.17485
2.17471
2.17421
2.14683
2.14686
2.14672
2.14622
2.11971
2.11974
2.1196
2.11911
2.09342
2.09345
2.09332
2.09283
2.06795
2.06797
2.06784
2.06736
2.04326
2.04328
2.04315
2.04267
2.01933
2.01935
2.01922
2.01874
1.99614
1.99617
1.99604
1.99556
1.97367
1.9737
1.97357
1.9731
1.95191
1.95194
1.95182
1.95135
1.93085
1.93088
1.93075
1.93029
1.91046
1.91049
1.91037
1.90991
1.89074
1.89077
1.89065
1.8902
1.87169
1.87172
1.87159
1.87115
1.85328
1.85331
1.85319
1.85275
1.83552
1.83555
1.83543
1.83499
1.8184
1.81843
1.81831
1.81788
1.80192
1.80195
1.80183
1.8014
1.78607
1.7861
1.78599
1.78557
1.77087
1.77088
1.77079
1.77037
1.75631
1.75631
1.75623
1.75581
1.74241
1.74239
1.74232
1.74189
1.72915
1.72912
1.72905
1.72863
1.71654
1.71652
1.71644
1.71602
1.7046
1.70457
1.7045
1.70408
1.69333
1.69331
1.69324
1.69281
1.68276
1.68274
1.68267
1.68224
1.6729
1.67287
1.6728
1.67238
1.66376
1.66373
1.66366
1.66324
1.65536
1.65534
1.65527
1.65485
1.64774
1.64772
1.64765
1.64723
1.64091
1.64089
1.64083
1.6404
1.63491
1.63489
1.63483
1.6344
1.62977
1.62975
1.62969
1.62926
1.62553
1.62551
1.62544
1.62501
1.62222
1.6222
1.62213
1.6217
1.61989
1.61986
1.6198
1.61937
1.61858
1.61855
1.6185
1.61806
)
;

boundaryField
{
    inlet
    {
        type            cyclic;
    }
    outlet
    {
        type            cyclic;
    }
    fixedWalls-bottom
    {
        beta1           0.075;
        blended         0;
        type            omegaWallFunction;
        value           uniform 1472.77;
    }
    fixedWalls-top
    {
        type            symmetry;
    }
    frontAndBack
    {
        type            empty;
    }
}


// ************************************************************************* //
