/*--------------------------------*- C++ -*----------------------------------*\
  =========                 |
  \\      /  F ield         | OpenFOAM: The Open Source CFD Toolbox
   \\    /   O peration     | Website:  https://openfoam.org
    \\  /    A nd           | Version:  10
     \\/     M anipulation  |
\*---------------------------------------------------------------------------*/
FoamFile
{
    format      ascii;
    class       volScalarField;
    location    "2500";
    object      p;
}
// * * * * * * * * * * * * * * * * * * * * * * * * * * * * * * * * * * * * * //

dimensions      [0 2 -2 0 0 0 0];

internalField   nonuniform List<scalar> 
400
(
6.03755e-12
6.78414e-08
-9.04114e-07
-9.61961e-07
-1.277e-09
6.85275e-08
-9.02813e-07
-9.6265e-07
-2.72121e-09
6.84328e-08
-9.01363e-07
-9.62558e-07
-4.20354e-09
6.69783e-08
-8.99876e-07
-9.61108e-07
-5.64185e-09
6.45362e-08
-8.98435e-07
-9.58672e-07
-6.78289e-09
6.13847e-08
-8.97292e-07
-9.55529e-07
-7.64593e-09
5.76154e-08
-8.96427e-07
-9.51769e-07
-8.46829e-09
5.32654e-08
-8.95604e-07
-9.4743e-07
-9.53919e-09
4.83593e-08
-8.94532e-07
-9.42536e-07
-1.10566e-08
4.29127e-08
-8.93015e-07
-9.37102e-07
-1.31258e-08
3.69901e-08
-8.90945e-07
-9.31194e-07
-1.57938e-08
3.06627e-08
-8.88278e-07
-9.24883e-07
-1.90842e-08
2.40085e-08
-8.84987e-07
-9.18246e-07
-2.29888e-08
1.70827e-08
-8.81083e-07
-9.11339e-07
-2.74733e-08
9.9319e-09
-8.76597e-07
-9.04208e-07
-3.24775e-08
2.55172e-09
-8.71594e-07
-8.96851e-07
-3.79598e-08
-5.07731e-09
-8.66108e-07
-8.89245e-07
-4.39723e-08
-1.29672e-08
-8.60096e-07
-8.8138e-07
-5.05928e-08
-2.1118e-08
-8.53471e-07
-8.73256e-07
-5.78236e-08
-2.95603e-08
-8.46238e-07
-8.64842e-07
-6.55609e-08
-3.82929e-08
-8.38495e-07
-8.56139e-07
-7.36901e-08
-4.73081e-08
-8.30363e-07
-8.47156e-07
-8.20728e-08
-5.65955e-08
-8.21972e-07
-8.379e-07
-9.06064e-08
-6.61656e-08
-8.13433e-07
-8.28365e-07
-9.92515e-08
-7.60202e-08
-8.04778e-07
-8.18546e-07
-1.08108e-07
-8.60326e-08
-7.95914e-07
-8.08571e-07
-1.17277e-07
-9.61013e-08
-7.86733e-07
-7.98541e-07
-1.26767e-07
-1.06256e-07
-7.77234e-07
-7.88427e-07
-1.3652e-07
-1.16543e-07
-7.67465e-07
-7.78181e-07
-1.46484e-07
-1.26973e-07
-7.5749e-07
-7.67794e-07
-1.56598e-07
-1.37564e-07
-7.47358e-07
-7.57247e-07
-1.66823e-07
-1.48316e-07
-7.3712e-07
-7.46542e-07
-1.7709e-07
-1.59247e-07
-7.26833e-07
-7.35657e-07
-1.87365e-07
-1.70376e-07
-7.16542e-07
-7.24577e-07
-1.97588e-07
-1.81748e-07
-7.06297e-07
-7.13253e-07
-2.07808e-07
-1.93396e-07
-6.96059e-07
-7.01657e-07
-2.18094e-07
-2.05216e-07
-6.85747e-07
-6.89888e-07
-2.2858e-07
-2.1709e-07
-6.75241e-07
-6.78068e-07
-2.39228e-07
-2.29016e-07
-6.64566e-07
-6.66195e-07
-2.50037e-07
-2.4101e-07
-6.53734e-07
-6.54256e-07
-2.60906e-07
-2.53064e-07
-6.42836e-07
-6.42258e-07
-2.71833e-07
-2.65191e-07
-6.31884e-07
-6.30189e-07
-2.82723e-07
-2.77414e-07
-6.20962e-07
-6.18023e-07
-2.9363e-07
-2.89726e-07
-6.10028e-07
-6.05771e-07
-3.04523e-07
-3.02047e-07
-5.99101e-07
-5.93508e-07
-3.1546e-07
-3.14376e-07
-5.88134e-07
-5.81241e-07
-3.26364e-07
-3.26744e-07
-5.77194e-07
-5.68933e-07
-3.37267e-07
-3.39177e-07
-5.66259e-07
-5.56564e-07
-3.48132e-07
-3.51633e-07
-5.55356e-07
-5.44169e-07
-3.59003e-07
-3.64081e-07
-5.44452e-07
-5.31786e-07
-3.6981e-07
-3.76523e-07
-5.33605e-07
-5.19406e-07
-3.80532e-07
-3.88981e-07
-5.22847e-07
-5.07014e-07
-3.91094e-07
-4.01461e-07
-5.12243e-07
-4.94598e-07
-4.01483e-07
-4.13965e-07
-5.01816e-07
-4.8216e-07
-4.11704e-07
-4.26498e-07
-4.91552e-07
-4.69693e-07
-4.21867e-07
-4.38918e-07
-4.81349e-07
-4.5734e-07
-4.32078e-07
-4.51128e-07
-4.71093e-07
-4.45195e-07
-4.42359e-07
-4.63149e-07
-4.6077e-07
-4.33241e-07
-4.52702e-07
-4.75043e-07
-4.50382e-07
-4.21414e-07
-4.63069e-07
-4.8681e-07
-4.39971e-07
-4.09715e-07
-4.73457e-07
-4.98478e-07
-4.29535e-07
-3.98113e-07
-4.83832e-07
-5.10027e-07
-4.19116e-07
-3.86632e-07
-4.94198e-07
-5.21479e-07
-4.08701e-07
-3.75247e-07
-5.04516e-07
-5.32806e-07
-3.98337e-07
-3.63987e-07
-5.14795e-07
-5.44027e-07
-3.88009e-07
-3.52833e-07
-5.24992e-07
-5.55112e-07
-3.77765e-07
-3.41815e-07
-5.35116e-07
-5.66077e-07
-3.67591e-07
-3.30916e-07
-5.45124e-07
-5.76891e-07
-3.57535e-07
-3.20169e-07
-5.55026e-07
-5.87568e-07
-3.47582e-07
-3.09558e-07
-5.64779e-07
-5.98077e-07
-3.37781e-07
-2.99115e-07
-5.74392e-07
-6.08429e-07
-3.28116e-07
-2.88828e-07
-5.83826e-07
-6.18596e-07
-3.18633e-07
-2.78727e-07
-5.9309e-07
-6.28585e-07
-3.09318e-07
-2.68801e-07
-6.02148e-07
-6.3837e-07
-3.00211e-07
-2.5908e-07
-6.11009e-07
-6.47957e-07
-2.91299e-07
-2.49557e-07
-6.19644e-07
-6.57321e-07
-2.82615e-07
-2.40255e-07
-6.28059e-07
-6.66465e-07
-2.74149e-07
-2.31172e-07
-6.36233e-07
-6.7537e-07
-2.65927e-07
-2.22329e-07
-6.44167e-07
-6.84034e-07
-2.57944e-07
-2.13723e-07
-6.51844e-07
-6.92446e-07
-2.5022e-07
-2.05369e-07
-6.59255e-07
-7.00606e-07
-2.42762e-07
-1.97265e-07
-6.66385e-07
-7.08514e-07
-2.35588e-07
-1.8941e-07
-6.73231e-07
-7.16173e-07
-2.28698e-07
-1.81803e-07
-6.79832e-07
-7.2356e-07
-2.22057e-07
-1.74465e-07
-6.86239e-07
-7.30606e-07
-2.1561e-07
-1.67465e-07
-6.92479e-07
-7.37263e-07
-2.09335e-07
-1.60851e-07
-6.98496e-07
-7.43515e-07
-2.03283e-07
-1.54639e-07
-7.04226e-07
-7.49364e-07
-1.97523e-07
-1.48828e-07
-7.096e-07
-7.54791e-07
-1.9212e-07
-1.43435e-07
-7.14588e-07
-7.59782e-07
-1.87107e-07
-1.38475e-07
-7.19161e-07
-7.64309e-07
-1.82512e-07
-1.33975e-07
-7.2331e-07
-7.68355e-07
-1.78344e-07
-1.29955e-07
-7.27017e-07
-7.71894e-07
-1.74621e-07
-1.26436e-07
-7.30268e-07
-7.74906e-07
-1.71355e-07
-1.23443e-07
-7.33044e-07
-7.77368e-07
-1.68568e-07
-1.20996e-07
-7.35324e-07
-7.79256e-07
-1.66281e-07
-1.19119e-07
-7.37079e-07
-7.80554e-07
-1.64523e-07
-1.17829e-07
-7.38271e-07
-7.81264e-07
-1.63333e-07
-1.17122e-07
-7.38909e-07
-7.81494e-07
-1.62705e-07
-1.16892e-07
-7.3924e-07
-7.81556e-07
-1.62399e-07
-1.16818e-07
)
;

boundaryField
{
    inlet
    {
        type            cyclic;
    }
    outlet
    {
        type            cyclic;
    }
    fixedWalls-bottom
    {
        type            zeroGradient;
    }
    fixedWalls-top
    {
        type            symmetry;
    }
    frontAndBack
    {
        type            empty;
    }
}


// ************************************************************************* //
