/*--------------------------------*- C++ -*----------------------------------*\
  =========                 |
  \\      /  F ield         | OpenFOAM: The Open Source CFD Toolbox
   \\    /   O peration     | Website:  https://openfoam.org
    \\  /    A nd           | Version:  10
     \\/     M anipulation  |
\*---------------------------------------------------------------------------*/
FoamFile
{
    format      ascii;
    class       surfaceScalarField;
    location    "2500";
    object      phi;
}
// * * * * * * * * * * * * * * * * * * * * * * * * * * * * * * * * * * * * * //

dimensions      [0 3 -1 0 0 0 0];

internalField   nonuniform List<scalar> 
696
(
0.00141504
-2.33709e-08
0.00141502
1.7541e-08
0.001415
2.28397e-08
-1.7528e-08
0.00416857
-8.1368e-08
0.00416852
6.37861e-08
0.00416846
8.08056e-08
-6.37433e-08
0.00611197
-1.36541e-07
0.00611192
1.08536e-07
0.00611187
1.35974e-07
-1.08475e-07
0.00720157
-1.76346e-07
0.00720153
1.4408e-07
0.00720149
1.75767e-07
-1.4401e-07
0.00786725
-2.03331e-07
0.00786722
1.7305e-07
0.0078672
2.02757e-07
-1.72972e-07
0.00833343
-2.21095e-07
0.0083334
1.97448e-07
0.00833338
2.20513e-07
-1.97368e-07
0.00869668
-2.32469e-07
0.00869666
2.18431e-07
0.00869665
2.31894e-07
-2.18345e-07
0.00900173
-2.39367e-07
0.00900172
2.36704e-07
0.00900171
2.38788e-07
-2.36616e-07
0.00927133
-2.43216e-07
0.00927132
2.52719e-07
0.00927131
2.42644e-07
-2.52627e-07
0.00951808
-2.44943e-07
0.00951806
2.66752e-07
0.00951806
2.44368e-07
-2.66659e-07
0.00974949
-2.45272e-07
0.00974948
2.79077e-07
0.00974948
2.44706e-07
-2.7898e-07
0.00997032
-2.44646e-07
0.00997031
2.89905e-07
0.00997031
2.44077e-07
-2.89806e-07
0.0101838
-2.43428e-07
0.0101837
2.99456e-07
0.0101837
2.42867e-07
-2.99354e-07
0.010392
-2.41818e-07
0.010392
3.0789e-07
0.010392
2.41255e-07
-3.07787e-07
0.0105966
-2.39978e-07
0.0105966
3.15375e-07
0.0105966
2.39424e-07
-3.15269e-07
0.0107987
-2.37985e-07
0.0107987
3.22025e-07
0.0107987
2.3743e-07
-3.21918e-07
0.0109993
-2.35901e-07
0.0109993
3.27955e-07
0.0109993
2.35353e-07
-3.27845e-07
0.011199
-2.33801e-07
0.011199
3.33195e-07
0.011199
2.33252e-07
-3.33083e-07
0.0113983
-2.31758e-07
0.0113983
3.37789e-07
0.0113983
2.31217e-07
-3.37674e-07
0.0115978
-2.29849e-07
0.0115978
3.41766e-07
0.0115978
2.29309e-07
-3.4165e-07
0.0117978
-2.28084e-07
0.0117978
3.45172e-07
0.0117978
2.27551e-07
-3.45053e-07
0.0119985
-2.2648e-07
0.0119985
3.48024e-07
0.0119985
2.25948e-07
-3.47904e-07
0.0122004
-2.25003e-07
0.0122004
3.50345e-07
0.0122004
2.24478e-07
-3.50223e-07
0.0124034
-2.23632e-07
0.0124034
3.52146e-07
0.0124034
2.23107e-07
-3.52023e-07
0.012608
-2.22319e-07
0.012608
3.53438e-07
0.012608
2.21801e-07
-3.53312e-07
0.0128141
-2.21059e-07
0.0128141
3.54274e-07
0.0128141
2.20542e-07
-3.54147e-07
0.0130221
-2.19864e-07
0.0130221
3.54694e-07
0.0130221
2.19354e-07
-3.54565e-07
0.0132319
-2.18756e-07
0.0132319
3.54738e-07
0.0132319
2.18247e-07
-3.54607e-07
0.0134439
-2.17743e-07
0.0134439
3.54414e-07
0.0134439
2.17241e-07
-3.54281e-07
0.0136579
-2.16828e-07
0.0136579
3.53753e-07
0.0136579
2.16328e-07
-3.5362e-07
0.0138742
-2.15996e-07
0.0138742
3.52761e-07
0.0138742
2.15503e-07
-3.52626e-07
0.0140929
-2.15235e-07
0.0140929
3.51464e-07
0.0140929
2.14743e-07
-3.51328e-07
0.014314
-2.14503e-07
0.014314
3.49868e-07
0.014314
2.14017e-07
-3.4973e-07
0.0145377
-2.13781e-07
0.0145377
3.4799e-07
0.0145377
2.13297e-07
-3.47852e-07
0.0147639
-2.13009e-07
0.0147639
3.45838e-07
0.0147639
2.12532e-07
-3.45698e-07
0.0149929
-2.12185e-07
0.0149929
3.43402e-07
0.0149929
2.1171e-07
-3.43261e-07
0.0152246
-2.11265e-07
0.0152246
3.40691e-07
0.0152246
2.10796e-07
-3.40548e-07
0.0154592
-2.10285e-07
0.0154592
3.37717e-07
0.0154592
2.09819e-07
-3.37573e-07
0.0156966
-2.092e-07
0.0156966
3.34516e-07
0.0156966
2.0874e-07
-3.34371e-07
0.0159371
-2.08045e-07
0.0159371
3.31091e-07
0.0159371
2.07588e-07
-3.30945e-07
0.0161806
-2.0676e-07
0.0161806
3.27474e-07
0.0161806
2.06309e-07
-3.27327e-07
0.0164271
-2.05383e-07
0.0164271
3.2366e-07
0.0164271
2.04935e-07
-3.23512e-07
0.0166769
-2.03852e-07
0.0166769
3.19679e-07
0.0166769
2.0341e-07
-3.1953e-07
0.0169299
-2.02207e-07
0.0169299
3.15523e-07
0.0169299
2.01767e-07
-3.15373e-07
0.0171862
-2.00391e-07
0.0171862
3.1122e-07
0.0171862
1.99958e-07
-3.11069e-07
0.0174458
-1.9845e-07
0.0174458
3.06763e-07
0.0174458
1.9802e-07
-3.06611e-07
0.0177089
-1.96338e-07
0.0177089
3.02176e-07
0.0177089
1.95914e-07
-3.02023e-07
0.0179754
-1.94096e-07
0.0179754
2.97455e-07
0.0179754
1.93675e-07
-2.97303e-07
0.0182455
-1.91694e-07
0.0182455
2.92623e-07
0.0182455
1.9128e-07
-2.92469e-07
0.0185192
-1.89167e-07
0.0185192
2.87675e-07
0.0185192
1.88756e-07
-2.87521e-07
0.0187965
-1.86497e-07
0.0187965
2.82626e-07
0.0187965
1.86092e-07
-2.82471e-07
0.0190776
-1.83707e-07
0.0190776
2.77475e-07
0.0190776
1.83305e-07
-2.7732e-07
0.0193624
-1.80786e-07
0.0193624
2.72227e-07
0.0193624
1.80391e-07
-2.72071e-07
0.0196511
-1.77741e-07
0.0196511
2.66878e-07
0.0196511
1.7735e-07
-2.66723e-07
0.0199437
-1.74569e-07
0.0199437
2.61426e-07
0.0199437
1.74184e-07
-2.6127e-07
0.0202402
-1.7127e-07
0.0202402
2.55894e-07
0.0202402
1.70888e-07
-2.55738e-07
0.0205408
-1.67871e-07
0.0205408
2.50293e-07
0.0205408
1.67496e-07
-2.50137e-07
0.0208454
-1.64382e-07
0.0208454
2.44646e-07
0.0208454
1.6401e-07
-2.4449e-07
0.0211542
-1.60841e-07
0.0211542
2.38944e-07
0.0211542
1.60476e-07
-2.38788e-07
0.0214671
-1.57244e-07
0.0214671
2.33209e-07
0.0214671
1.56883e-07
-2.33053e-07
0.0217844
-1.53629e-07
0.0217844
2.27426e-07
0.0217844
1.53275e-07
-2.27271e-07
0.0221059
-1.49982e-07
0.0221059
2.21619e-07
0.0221059
1.49632e-07
-2.21464e-07
0.0224318
-1.46337e-07
0.0224318
2.1577e-07
0.0224318
1.45994e-07
-2.15615e-07
0.0227622
-1.42672e-07
0.0227622
2.09903e-07
0.0227622
1.42333e-07
-2.09749e-07
0.0230971
-1.39021e-07
0.0230971
2.04e-07
0.0230971
1.38689e-07
-2.03846e-07
0.0234365
-1.35357e-07
0.0234365
1.98084e-07
0.0234365
1.3503e-07
-1.9793e-07
0.0237806
-1.31711e-07
0.0237806
1.92136e-07
0.0237806
1.31391e-07
-1.91983e-07
0.0241293
-1.28056e-07
0.0241293
1.8618e-07
0.0241293
1.27741e-07
-1.86028e-07
0.0244828
-1.2442e-07
0.0244828
1.80196e-07
0.0244828
1.24112e-07
-1.80045e-07
0.0248412
-1.20774e-07
0.0248412
1.74206e-07
0.0248412
1.20472e-07
-1.74056e-07
0.0252043
-1.17143e-07
0.0252044
1.68194e-07
0.0252044
1.16849e-07
-1.68046e-07
0.0255725
-1.13503e-07
0.0255725
1.62179e-07
0.0255725
1.13213e-07
-1.62032e-07
0.0259456
-1.0987e-07
0.0259456
1.56147e-07
0.0259456
1.09589e-07
-1.56001e-07
0.0263238
-1.06225e-07
0.0263238
1.50114e-07
0.0263238
1.05949e-07
-1.4997e-07
0.0267071
-1.02578e-07
0.0267071
1.4407e-07
0.0267071
1.02311e-07
-1.43928e-07
0.0270956
-9.89138e-08
0.0270956
1.38027e-07
0.0270956
9.86535e-08
-1.37887e-07
0.0274894
-9.52377e-08
0.0274894
1.31979e-07
0.0274894
9.49866e-08
-1.31843e-07
0.0278885
-9.15372e-08
0.0278885
1.25937e-07
0.0278885
9.12933e-08
-1.25803e-07
0.0282929
-8.78085e-08
0.0282929
1.19899e-07
0.0282929
8.75744e-08
-1.19769e-07
0.0287028
-8.40448e-08
0.0287028
1.13872e-07
0.0287028
8.38191e-08
-1.13745e-07
0.0291181
-8.0231e-08
0.0291181
1.07859e-07
0.0291181
8.00158e-08
-1.07736e-07
0.0295391
-7.63668e-08
0.0295391
1.01859e-07
0.0295391
7.61609e-08
-1.0174e-07
0.0299656
-7.24332e-08
0.0299656
9.58654e-08
0.0299656
7.22386e-08
-9.57524e-08
0.0303978
-6.84543e-08
0.0303978
8.98711e-08
0.0303978
6.82701e-08
-8.97633e-08
0.0308358
-6.44223e-08
0.0308358
8.38914e-08
0.0308358
6.425e-08
-8.37893e-08
0.0312795
-6.03669e-08
0.0312795
7.79273e-08
0.0312795
6.0206e-08
-7.78312e-08
0.0317291
-5.62656e-08
0.0317291
7.19926e-08
0.0317291
5.61171e-08
-7.19028e-08
0.0321846
-5.21425e-08
0.0321846
6.60844e-08
0.0321846
5.20061e-08
-6.60013e-08
0.0326461
-4.79733e-08
0.0326461
6.0215e-08
0.0326461
4.78496e-08
-6.01385e-08
0.0331135
-4.37817e-08
0.0331135
5.43823e-08
0.0331135
4.36705e-08
-5.4313e-08
0.033587
-3.95469e-08
0.033587
4.85989e-08
0.0335871
3.94483e-08
-4.85364e-08
0.0340667
-3.52878e-08
0.0340667
4.28667e-08
0.0340667
3.52019e-08
-4.28118e-08
0.0345524
-3.09895e-08
0.0345525
3.71994e-08
0.0345525
3.09161e-08
-3.71516e-08
0.0350444
-2.66651e-08
0.0350444
3.1604e-08
0.0350444
2.66044e-08
-3.1564e-08
0.0355426
-2.23051e-08
0.0355426
2.60952e-08
0.0355426
2.22571e-08
-2.60627e-08
0.0360471
-1.79156e-08
0.0360471
2.06842e-08
0.0360471
1.78796e-08
-2.06594e-08
0.0365579
-1.34901e-08
0.0365579
1.5382e-08
0.0365579
1.34664e-08
-1.5365e-08
0.037075
-9.02621e-09
0.037075
1.01903e-08
0.037075
9.01495e-09
-1.01814e-08
0.0375985
-4.52348e-09
0.0375985
5.09084e-09
0.0375985
4.52281e-09
-5.09018e-09
0.0381283
0.0381283
0.0381283
)
;

boundaryField
{
    inlet
    {
        type            cyclic;
        value           nonuniform List<scalar> 
100
(
-0.0381283
-0.0375985
-0.037075
-0.0365579
-0.0360471
-0.0355426
-0.0350444
-0.0345525
-0.0340667
-0.033587
-0.0331135
-0.0326461
-0.0321846
-0.0317291
-0.0312795
-0.0308358
-0.0303978
-0.0299656
-0.0295391
-0.0291181
-0.0287028
-0.0282929
-0.0278885
-0.0274894
-0.0270956
-0.0267071
-0.0263238
-0.0259456
-0.0255725
-0.0252044
-0.0248412
-0.0244828
-0.0241293
-0.0237806
-0.0234365
-0.0230971
-0.0227622
-0.0224318
-0.0221059
-0.0217844
-0.0214671
-0.0211542
-0.0208454
-0.0205408
-0.0202402
-0.0199437
-0.0196511
-0.0193624
-0.0190776
-0.0187965
-0.0185192
-0.0182455
-0.0179754
-0.0177089
-0.0174458
-0.0171862
-0.0169299
-0.0166769
-0.0164271
-0.0161806
-0.0159371
-0.0156966
-0.0154592
-0.0152246
-0.0149929
-0.0147639
-0.0145377
-0.014314
-0.0140929
-0.0138742
-0.0136579
-0.0134439
-0.0132319
-0.0130221
-0.0128141
-0.012608
-0.0124034
-0.0122004
-0.0119985
-0.0117978
-0.0115978
-0.0113983
-0.011199
-0.0109993
-0.0107987
-0.0105966
-0.010392
-0.0101838
-0.00997032
-0.00974949
-0.00951808
-0.00927133
-0.00900173
-0.00869667
-0.00833341
-0.00786722
-0.00720153
-0.00611191
-0.00416851
-0.00141502
)
;
    }
    outlet
    {
        type            cyclic;
        value           nonuniform List<scalar> 
100
(
0.0381283
0.0375985
0.037075
0.0365579
0.0360471
0.0355426
0.0350444
0.0345525
0.0340667
0.033587
0.0331135
0.0326461
0.0321846
0.0317291
0.0312795
0.0308358
0.0303978
0.0299656
0.0295391
0.0291181
0.0287028
0.0282929
0.0278885
0.0274894
0.0270956
0.0267071
0.0263238
0.0259456
0.0255725
0.0252044
0.0248412
0.0244828
0.0241293
0.0237806
0.0234365
0.0230971
0.0227622
0.0224318
0.0221059
0.0217844
0.0214671
0.0211542
0.0208454
0.0205408
0.0202402
0.0199437
0.0196511
0.0193624
0.0190776
0.0187965
0.0185192
0.0182455
0.0179754
0.0177089
0.0174458
0.0171862
0.0169299
0.0166769
0.0164271
0.0161806
0.0159371
0.0156966
0.0154592
0.0152246
0.0149929
0.0147639
0.0145377
0.014314
0.0140929
0.0138742
0.0136579
0.0134439
0.0132319
0.0130221
0.0128141
0.012608
0.0124034
0.0122004
0.0119985
0.0117978
0.0115978
0.0113983
0.011199
0.0109993
0.0107987
0.0105966
0.010392
0.0101838
0.00997032
0.00974949
0.00951808
0.00927133
0.00900173
0.00869667
0.00833341
0.00786722
0.00720153
0.00611191
0.00416851
0.00141502
)
;
    }
    fixedWalls-bottom
    {
        type            calculated;
        value           uniform 0;
    }
    fixedWalls-top
    {
        type            symmetry;
        value           uniform 0;
    }
    frontAndBack
    {
        type            empty;
        value           nonuniform List<scalar> 0();
    }
}


// ************************************************************************* //
