/*--------------------------------*- C++ -*----------------------------------*\
  =========                 |
  \\      /  F ield         | OpenFOAM: The Open Source CFD Toolbox
   \\    /   O peration     | Website:  https://openfoam.org
    \\  /    A nd           | Version:  10
     \\/     M anipulation  |
\*---------------------------------------------------------------------------*/
FoamFile
{
    format      ascii;
    class       volScalarField;
    location    "5000";
    object      p;
}
// * * * * * * * * * * * * * * * * * * * * * * * * * * * * * * * * * * * * * //

dimensions      [0 2 -2 0 0 0 0];

internalField   nonuniform List<scalar> 
400
(
9.72586e-19
2.3269e-17
4.32619e-16
4.61803e-16
2.87351e-19
2.33251e-17
4.32608e-16
4.61711e-16
6.77998e-19
2.34092e-17
4.32611e-16
4.61603e-16
1.52372e-18
2.34774e-17
4.32677e-16
4.61444e-16
2.10121e-18
2.35551e-17
4.32735e-16
4.61289e-16
2.39946e-18
2.36144e-17
4.32822e-16
4.61125e-16
2.46956e-18
2.35842e-17
4.32942e-16
4.61053e-16
2.39743e-18
2.34949e-17
4.33114e-16
4.61031e-16
2.46275e-18
2.3419e-17
4.33182e-16
4.60976e-16
2.48142e-18
2.32853e-17
4.33262e-16
4.60946e-16
2.4152e-18
2.32013e-17
4.33422e-16
4.60889e-16
2.38074e-18
2.26714e-17
4.33612e-16
4.61205e-16
2.18255e-18
2.19416e-17
4.33822e-16
4.61831e-16
2.24385e-18
2.15606e-17
4.34032e-16
4.61891e-16
2.19097e-18
2.13545e-17
4.34268e-16
4.61705e-16
2.13451e-18
2.10654e-17
4.34518e-16
4.61634e-16
2.06247e-18
2.06158e-17
4.34686e-16
4.61871e-16
1.93375e-18
2.0385e-17
4.34886e-16
4.61976e-16
1.54615e-18
1.99379e-17
4.35411e-16
4.62192e-16
1.14972e-18
1.9531e-17
4.35725e-16
4.62429e-16
1.10541e-18
1.90575e-17
4.35832e-16
4.62683e-16
9.96258e-19
1.9069e-17
4.3587e-16
4.62549e-16
7.20958e-19
1.87333e-17
4.36192e-16
4.6267e-16
2.19327e-20
1.82756e-17
4.36987e-16
4.62868e-16
-7.49144e-19
1.79439e-17
4.37843e-16
4.62964e-16
-1.49699e-18
1.70311e-17
4.38847e-16
4.63228e-16
-2.4073e-18
1.64532e-17
4.40085e-16
4.63398e-16
-3.55386e-18
1.55456e-17
4.41355e-16
4.63993e-16
-4.69367e-18
1.44883e-17
4.42743e-16
4.64749e-16
-5.98524e-18
1.30377e-17
4.4428e-16
4.65671e-16
-7.60212e-18
1.16468e-17
4.4589e-16
4.66834e-16
-9.12702e-18
1.07002e-17
4.47353e-16
4.67519e-16
-1.06577e-17
1.00195e-17
4.48577e-16
4.68292e-16
-1.17957e-17
8.96433e-18
4.4964e-16
4.69083e-16
-1.25684e-17
8.44131e-18
4.50684e-16
4.69118e-16
-1.31291e-17
7.92914e-18
4.51667e-16
4.69265e-16
-1.36517e-17
7.34978e-18
4.52432e-16
4.69369e-16
-1.38315e-17
6.55071e-18
4.53107e-16
4.6959e-16
-1.36964e-17
5.47529e-18
4.53581e-16
4.69924e-16
-1.42547e-17
5.53585e-18
4.54058e-16
4.69513e-16
-1.43691e-17
6.06387e-18
4.54088e-16
4.69086e-16
-1.48839e-17
5.15196e-18
4.54645e-16
4.69922e-16
-1.51167e-17
4.46352e-18
4.55044e-16
4.70043e-16
-1.46526e-17
4.54704e-18
4.54497e-16
4.69893e-16
-1.44776e-17
3.45294e-18
4.54414e-16
4.70691e-16
-1.35054e-17
2.34643e-18
4.53716e-16
4.71627e-16
-1.27009e-17
1.67918e-19
4.53388e-16
4.73355e-16
-1.25668e-17
-1.89751e-18
4.53283e-16
4.75349e-16
-1.16989e-17
-3.21456e-18
4.52435e-16
4.76575e-16
-1.01029e-17
-3.82566e-18
4.50994e-16
4.77068e-16
-9.0718e-18
-4.02966e-18
4.4989e-16
4.77345e-16
-7.83719e-18
-4.07738e-18
4.48683e-16
4.77306e-16
-5.81976e-18
-4.2237e-18
4.47632e-16
4.76711e-16
-2.54346e-18
-3.58946e-18
4.45542e-16
4.7511e-16
7.48163e-19
-2.9175e-18
4.43747e-16
4.73712e-16
4.06998e-18
-1.83488e-18
4.41747e-16
4.71591e-16
6.93398e-18
-1.13605e-18
4.40115e-16
4.70381e-16
9.82427e-18
-1.41013e-18
4.38354e-16
4.70079e-16
1.27161e-17
-2.0712e-18
4.36312e-16
4.69978e-16
1.60711e-17
-1.37629e-18
4.33498e-16
4.69203e-16
1.98542e-17
1.11808e-18
4.30777e-16
4.65999e-16
2.38528e-17
3.09114e-18
4.27715e-16
4.63496e-16
2.86848e-17
6.29216e-18
4.23447e-16
4.60377e-16
3.43458e-17
8.95659e-18
4.18656e-16
4.57103e-16
4.05857e-17
1.34291e-17
4.13154e-16
4.51778e-16
4.76158e-17
1.90887e-17
4.06682e-16
4.45923e-16
5.4989e-17
2.32081e-17
4.00191e-16
4.41591e-16
6.17017e-17
2.49729e-17
3.9409e-16
4.39375e-16
6.71512e-17
2.74591e-17
3.8885e-16
4.3641e-16
7.19778e-17
3.0502e-17
3.83966e-16
4.33531e-16
7.6569e-17
3.45386e-17
3.79667e-16
4.29354e-16
8.11385e-17
3.92655e-17
3.74223e-16
4.25481e-16
8.73912e-17
4.46267e-17
3.67833e-16
4.20362e-16
9.36038e-17
4.86349e-17
3.61409e-16
4.16508e-16
9.95768e-17
5.24587e-17
3.55213e-16
4.12569e-16
1.06441e-16
5.68859e-17
3.48895e-16
4.08201e-16
1.13436e-16
5.99124e-17
3.42095e-16
4.05231e-16
1.20578e-16
6.34043e-17
3.34809e-16
4.02205e-16
1.27855e-16
6.74571e-17
3.26804e-16
3.98761e-16
1.35637e-16
7.10011e-17
3.19039e-16
3.95283e-16
1.43211e-16
7.4447e-17
3.1168e-16
3.92818e-16
1.4956e-16
7.79933e-17
3.05202e-16
3.89979e-16
1.5505e-16
8.14727e-17
3.00081e-16
3.86773e-16
1.59376e-16
8.37242e-17
2.9615e-16
3.84581e-16
1.62224e-16
8.49989e-17
2.93549e-16
3.83717e-16
1.64295e-16
8.66541e-17
2.91056e-16
3.82513e-16
1.6626e-16
8.86204e-17
2.89115e-16
3.80651e-16
1.67473e-16
8.97951e-17
2.88116e-16
3.79786e-16
1.67624e-16
9.0933e-17
2.87524e-16
3.78937e-16
1.68006e-16
9.19857e-17
2.86106e-16
3.79074e-16
1.68291e-16
9.07395e-17
2.85396e-16
3.80817e-16
1.67851e-16
8.82016e-17
2.86178e-16
3.82277e-16
1.66694e-16
8.56392e-17
2.87169e-16
3.85328e-16
1.65131e-16
8.28416e-17
2.8832e-16
3.88425e-16
1.64672e-16
7.97573e-17
2.88444e-16
3.91586e-16
1.64689e-16
7.68511e-17
2.8905e-16
3.9423e-16
1.65458e-16
7.69188e-17
2.87326e-16
3.95194e-16
1.67252e-16
7.72261e-17
2.85298e-16
3.95411e-16
1.68885e-16
7.69023e-17
2.83841e-16
3.95494e-16
1.72114e-16
7.69676e-17
2.81688e-16
3.94888e-16
)
;

boundaryField
{
    inlet
    {
        type            cyclic;
    }
    outlet
    {
        type            cyclic;
    }
    fixedWalls-bottom
    {
        type            zeroGradient;
    }
    fixedWalls-top
    {
        type            symmetry;
    }
    frontAndBack
    {
        type            empty;
    }
}


// ************************************************************************* //
