/*--------------------------------*- C++ -*----------------------------------*\
  =========                 |
  \\      /  F ield         | OpenFOAM: The Open Source CFD Toolbox
   \\    /   O peration     | Website:  https://openfoam.org
    \\  /    A nd           | Version:  10
     \\/     M anipulation  |
\*---------------------------------------------------------------------------*/
FoamFile
{
    format      ascii;
    class       volSymmTensorField;
    location    "5000";
    object      R;
}
// * * * * * * * * * * * * * * * * * * * * * * * * * * * * * * * * * * * * * //

dimensions      [0 2 -2 0 0 0 0];

internalField   nonuniform List<symmTensor> 
400
(
(1.4803e-16 -1.51355e-20 -0 1.4803e-16 -0 1.4803e-16)
(1.4803e-16 -1.51355e-20 -0 1.4803e-16 -0 1.4803e-16)
(1.4803e-16 -1.51355e-20 -0 1.4803e-16 -0 1.4803e-16)
(1.4803e-16 -1.51355e-20 -0 1.4803e-16 -0 1.4803e-16)
(1.4803e-16 -9.1867e-20 -0 1.4803e-16 -0 1.4803e-16)
(1.4803e-16 -9.1867e-20 -0 1.4803e-16 -0 1.4803e-16)
(1.4803e-16 -9.1867e-20 -0 1.4803e-16 -0 1.4803e-16)
(1.4803e-16 -9.1867e-20 -0 1.4803e-16 -0 1.4803e-16)
(1.4803e-16 -2.77263e-19 -0 1.4803e-16 -0 1.4803e-16)
(1.4803e-16 -2.77263e-19 -0 1.4803e-16 -0 1.4803e-16)
(1.4803e-16 -2.77263e-19 -0 1.4803e-16 -0 1.4803e-16)
(1.4803e-16 -2.77263e-19 -0 1.4803e-16 -0 1.4803e-16)
(1.4803e-16 -5.93345e-19 -0 1.4803e-16 -0 1.4803e-16)
(1.4803e-16 -5.93346e-19 -0 1.4803e-16 -0 1.4803e-16)
(1.4803e-16 -5.93346e-19 -0 1.4803e-16 -0 1.4803e-16)
(1.4803e-16 -5.93346e-19 -0 1.4803e-16 -0 1.4803e-16)
(1.4803e-16 -1.0481e-18 -0 1.4803e-16 -0 1.4803e-16)
(1.4803e-16 -1.04811e-18 -0 1.4803e-16 -0 1.4803e-16)
(1.4803e-16 -1.04812e-18 -0 1.4803e-16 -0 1.4803e-16)
(1.4803e-16 -1.04811e-18 -0 1.4803e-16 -0 1.4803e-16)
(1.4803e-16 -1.64101e-18 -0 1.4803e-16 -0 1.4803e-16)
(1.4803e-16 -1.64104e-18 -0 1.4803e-16 -0 1.4803e-16)
(1.4803e-16 -1.64106e-18 -0 1.4803e-16 -0 1.4803e-16)
(1.4803e-16 -1.64105e-18 -0 1.4803e-16 -0 1.4803e-16)
(1.4803e-16 -2.36688e-18 -0 1.4803e-16 -0 1.4803e-16)
(1.4803e-16 -2.36698e-18 -0 1.4803e-16 -0 1.4803e-16)
(1.4803e-16 -2.36701e-18 -0 1.4803e-16 -0 1.4803e-16)
(1.4803e-16 -2.36699e-18 -0 1.4803e-16 -0 1.4803e-16)
(1.4803e-16 -3.22232e-18 -0 1.4803e-16 -0 1.4803e-16)
(1.4803e-16 -3.22252e-18 -0 1.4803e-16 -0 1.4803e-16)
(1.4803e-16 -3.22257e-18 -0 1.4803e-16 -0 1.4803e-16)
(1.4803e-16 -3.22254e-18 -0 1.4803e-16 -0 1.4803e-16)
(1.4803e-16 -4.20762e-18 -0 1.4803e-16 -0 1.4803e-16)
(1.4803e-16 -4.20797e-18 -0 1.4803e-16 -0 1.4803e-16)
(1.4803e-16 -4.20802e-18 -0 1.4803e-16 -0 1.4803e-16)
(1.4803e-16 -4.20798e-18 -0 1.4803e-16 -0 1.4803e-16)
(1.4803e-16 -5.32467e-18 -0 1.4803e-16 -0 1.4803e-16)
(1.4803e-16 -5.32517e-18 -0 1.4803e-16 -0 1.4803e-16)
(1.4803e-16 -5.32522e-18 -0 1.4803e-16 -0 1.4803e-16)
(1.4803e-16 -5.32518e-18 -0 1.4803e-16 -0 1.4803e-16)
(1.4803e-16 -6.57524e-18 -0 1.4803e-16 -0 1.4803e-16)
(1.4803e-16 -6.57591e-18 -0 1.4803e-16 -0 1.4803e-16)
(1.4803e-16 -6.57598e-18 -0 1.4803e-16 -0 1.4803e-16)
(1.4803e-16 -6.57593e-18 -0 1.4803e-16 -0 1.4803e-16)
(1.4803e-16 -7.96021e-18 -0 1.4803e-16 -0 1.4803e-16)
(1.4803e-16 -7.96104e-18 -0 1.4803e-16 -0 1.4803e-16)
(1.4803e-16 -7.96115e-18 -0 1.4803e-16 -0 1.4803e-16)
(1.4803e-16 -7.96108e-18 -0 1.4803e-16 -0 1.4803e-16)
(1.4803e-16 -9.47911e-18 -0 1.4803e-16 -0 1.4803e-16)
(1.4803e-16 -9.48015e-18 -0 1.4803e-16 -0 1.4803e-16)
(1.4803e-16 -9.48032e-18 -0 1.4803e-16 -0 1.4803e-16)
(1.4803e-16 -9.48024e-18 -0 1.4803e-16 -0 1.4803e-16)
(1.4803e-16 -1.11294e-17 -0 1.4803e-16 -0 1.4803e-16)
(1.4803e-16 -1.11307e-17 -0 1.4803e-16 -0 1.4803e-16)
(1.4803e-16 -1.1131e-17 -0 1.4803e-16 -0 1.4803e-16)
(1.4803e-16 -1.11309e-17 -0 1.4803e-16 -0 1.4803e-16)
(1.4803e-16 -1.2905e-17 -0 1.4803e-16 -0 1.4803e-16)
(1.4803e-16 -1.29067e-17 -0 1.4803e-16 -0 1.4803e-16)
(1.4803e-16 -1.29072e-17 -0 1.4803e-16 -0 1.4803e-16)
(1.4803e-16 -1.2907e-17 -0 1.4803e-16 -0 1.4803e-16)
(1.4803e-16 -1.47954e-17 -0 1.4803e-16 -0 1.4803e-16)
(1.4803e-16 -1.47978e-17 -0 1.4803e-16 -0 1.4803e-16)
(1.4803e-16 -1.47986e-17 -0 1.4803e-16 -0 1.4803e-16)
(1.4803e-16 -1.47983e-17 -0 1.4803e-16 -0 1.4803e-16)
(1.4803e-16 -1.67863e-17 -0 1.4803e-16 -0 1.4803e-16)
(1.4803e-16 -1.67896e-17 -0 1.4803e-16 -0 1.4803e-16)
(1.4803e-16 -1.67909e-17 -0 1.4803e-16 -0 1.4803e-16)
(1.4803e-16 -1.67905e-17 -0 1.4803e-16 -0 1.4803e-16)
(1.4803e-16 -1.88603e-17 -0 1.4803e-16 -0 1.4803e-16)
(1.4803e-16 -1.88649e-17 -0 1.4803e-16 -0 1.4803e-16)
(1.4803e-16 -1.88669e-17 -0 1.4803e-16 -0 1.4803e-16)
(1.4803e-16 -1.88664e-17 -0 1.4803e-16 -0 1.4803e-16)
(1.4803e-16 -2.0998e-17 -0 1.4803e-16 -0 1.4803e-16)
(1.4803e-16 -2.10043e-17 -0 1.4803e-16 -0 1.4803e-16)
(1.4803e-16 -2.10073e-17 -0 1.4803e-16 -0 1.4803e-16)
(1.4803e-16 -2.10067e-17 -0 1.4803e-16 -0 1.4803e-16)
(1.4803e-16 -2.31787e-17 -0 1.4803e-16 -0 1.4803e-16)
(1.4803e-16 -2.31873e-17 -0 1.4803e-16 -0 1.4803e-16)
(1.4803e-16 -2.31916e-17 -0 1.4803e-16 -0 1.4803e-16)
(1.4803e-16 -2.31908e-17 -0 1.4803e-16 -0 1.4803e-16)
(1.4803e-16 -2.53812e-17 -0 1.4803e-16 -0 1.4803e-16)
(1.4803e-16 -2.53924e-17 -0 1.4803e-16 -0 1.4803e-16)
(1.4803e-16 -2.53985e-17 -0 1.4803e-16 -0 1.4803e-16)
(1.4803e-16 -2.53976e-17 -0 1.4803e-16 -0 1.4803e-16)
(1.4803e-16 -2.75845e-17 -0 1.4803e-16 -0 1.4803e-16)
(1.4803e-16 -2.75987e-17 -0 1.4803e-16 -0 1.4803e-16)
(1.4803e-16 -2.76071e-17 -0 1.4803e-16 -0 1.4803e-16)
(1.4803e-16 -2.76062e-17 -0 1.4803e-16 -0 1.4803e-16)
(1.4803e-16 -2.97684e-17 -0 1.4803e-16 -0 1.4803e-16)
(1.4803e-16 -2.97861e-17 -0 1.4803e-16 -0 1.4803e-16)
(1.4803e-16 -2.97973e-17 -0 1.4803e-16 -0 1.4803e-16)
(1.4803e-16 -2.97966e-17 -0 1.4803e-16 -0 1.4803e-16)
(1.4803e-16 -3.19146e-17 -0 1.4803e-16 -0 1.4803e-16)
(1.4803e-16 -3.19359e-17 -0 1.4803e-16 -0 1.4803e-16)
(1.4803e-16 -3.19507e-17 -0 1.4803e-16 -0 1.4803e-16)
(1.4803e-16 -3.19505e-17 -0 1.4803e-16 -0 1.4803e-16)
(1.4803e-16 -3.40069e-17 -0 1.4803e-16 -0 1.4803e-16)
(1.4803e-16 -3.40319e-17 -0 1.4803e-16 -0 1.4803e-16)
(1.4803e-16 -3.4051e-17 -0 1.4803e-16 -0 1.4803e-16)
(1.4803e-16 -3.40519e-17 -0 1.4803e-16 -0 1.4803e-16)
(1.4803e-16 -3.60315e-17 -0 1.4803e-16 -0 1.4803e-16)
(1.4803e-16 -3.606e-17 -0 1.4803e-16 -0 1.4803e-16)
(1.4803e-16 -3.60841e-17 -0 1.4803e-16 -0 1.4803e-16)
(1.4803e-16 -3.60865e-17 -0 1.4803e-16 -0 1.4803e-16)
(1.4803e-16 -3.79773e-17 -0 1.4803e-16 -0 1.4803e-16)
(1.4803e-16 -3.8009e-17 -0 1.4803e-16 -0 1.4803e-16)
(1.4803e-16 -3.80385e-17 -0 1.4803e-16 -0 1.4803e-16)
(1.4803e-16 -3.80432e-17 -0 1.4803e-16 -0 1.4803e-16)
(1.4803e-16 -3.98361e-17 -0 1.4803e-16 -0 1.4803e-16)
(1.4803e-16 -3.98701e-17 -0 1.4803e-16 -0 1.4803e-16)
(1.4803e-16 -3.99053e-17 -0 1.4803e-16 -0 1.4803e-16)
(1.4803e-16 -3.99136e-17 -0 1.4803e-16 -0 1.4803e-16)
(1.4803e-16 -4.16019e-17 -0 1.4803e-16 -0 1.4803e-16)
(1.4803e-16 -4.16373e-17 -0 1.4803e-16 -0 1.4803e-16)
(1.4803e-16 -4.16781e-17 -0 1.4803e-16 -0 1.4803e-16)
(1.4803e-16 -4.16915e-17 -0 1.4803e-16 -0 1.4803e-16)
(1.4803e-16 -4.3271e-17 -0 1.4803e-16 -0 1.4803e-16)
(1.4803e-16 -4.33066e-17 -0 1.4803e-16 -0 1.4803e-16)
(1.4803e-16 -4.33528e-17 -0 1.4803e-16 -0 1.4803e-16)
(1.4803e-16 -4.33733e-17 -0 1.4803e-16 -0 1.4803e-16)
(1.4803e-16 -4.4842e-17 -0 1.4803e-16 -0 1.4803e-16)
(1.4803e-16 -4.48767e-17 -0 1.4803e-16 -0 1.4803e-16)
(1.4803e-16 -4.49277e-17 -0 1.4803e-16 -0 1.4803e-16)
(1.4803e-16 -4.49571e-17 -0 1.4803e-16 -0 1.4803e-16)
(1.4803e-16 -4.63148e-17 -0 1.4803e-16 -0 1.4803e-16)
(1.4803e-16 -4.63478e-17 -0 1.4803e-16 -0 1.4803e-16)
(1.4803e-16 -4.64027e-17 -0 1.4803e-16 -0 1.4803e-16)
(1.4803e-16 -4.64429e-17 -0 1.4803e-16 -0 1.4803e-16)
(1.4803e-16 -4.7691e-17 -0 1.4803e-16 -0 1.4803e-16)
(1.4803e-16 -4.77217e-17 -0 1.4803e-16 -0 1.4803e-16)
(1.4803e-16 -4.77793e-17 -0 1.4803e-16 -0 1.4803e-16)
(1.4803e-16 -4.7832e-17 -0 1.4803e-16 -0 1.4803e-16)
(1.4803e-16 -4.89731e-17 -0 1.4803e-16 -0 1.4803e-16)
(1.4803e-16 -4.90015e-17 -0 1.4803e-16 -0 1.4803e-16)
(1.4803e-16 -4.90603e-17 -0 1.4803e-16 -0 1.4803e-16)
(1.4803e-16 -4.91269e-17 -0 1.4803e-16 -0 1.4803e-16)
(1.4803e-16 -5.01646e-17 -0 1.4803e-16 -0 1.4803e-16)
(1.4803e-16 -5.01909e-17 -0 1.4803e-16 -0 1.4803e-16)
(1.4803e-16 -5.02493e-17 -0 1.4803e-16 -0 1.4803e-16)
(1.4803e-16 -5.0331e-17 -0 1.4803e-16 -0 1.4803e-16)
(1.4803e-16 -5.12696e-17 -0 1.4803e-16 -0 1.4803e-16)
(1.4803e-16 -5.1294e-17 -0 1.4803e-16 -0 1.4803e-16)
(1.4803e-16 -5.13512e-17 -0 1.4803e-16 -0 1.4803e-16)
(1.4803e-16 -5.14481e-17 -0 1.4803e-16 -0 1.4803e-16)
(1.4803e-16 -5.22929e-17 -0 1.4803e-16 -0 1.4803e-16)
(1.4803e-16 -5.23155e-17 -0 1.4803e-16 -0 1.4803e-16)
(1.4803e-16 -5.23714e-17 -0 1.4803e-16 -0 1.4803e-16)
(1.4803e-16 -5.2483e-17 -0 1.4803e-16 -0 1.4803e-16)
(1.4803e-16 -5.32394e-17 -0 1.4803e-16 -0 1.4803e-16)
(1.4803e-16 -5.32606e-17 -0 1.4803e-16 -0 1.4803e-16)
(1.4803e-16 -5.3316e-17 -0 1.4803e-16 -0 1.4803e-16)
(1.4803e-16 -5.34404e-17 -0 1.4803e-16 -0 1.4803e-16)
(1.4803e-16 -5.41146e-17 -0 1.4803e-16 -0 1.4803e-16)
(1.4803e-16 -5.41347e-17 -0 1.4803e-16 -0 1.4803e-16)
(1.4803e-16 -5.419e-17 -0 1.4803e-16 -0 1.4803e-16)
(1.4803e-16 -5.43261e-17 -0 1.4803e-16 -0 1.4803e-16)
(1.4803e-16 -5.49245e-17 -0 1.4803e-16 -0 1.4803e-16)
(1.4803e-16 -5.49437e-17 -0 1.4803e-16 -0 1.4803e-16)
(1.4803e-16 -5.49992e-17 -0 1.4803e-16 -0 1.4803e-16)
(1.4803e-16 -5.51462e-17 -0 1.4803e-16 -0 1.4803e-16)
(1.4803e-16 -5.56754e-17 -0 1.4803e-16 -0 1.4803e-16)
(1.4803e-16 -5.5694e-17 -0 1.4803e-16 -0 1.4803e-16)
(1.4803e-16 -5.575e-17 -0 1.4803e-16 -0 1.4803e-16)
(1.4803e-16 -5.59072e-17 -0 1.4803e-16 -0 1.4803e-16)
(1.4803e-16 -5.63744e-17 -0 1.4803e-16 -0 1.4803e-16)
(1.4803e-16 -5.63926e-17 -0 1.4803e-16 -0 1.4803e-16)
(1.4803e-16 -5.64493e-17 -0 1.4803e-16 -0 1.4803e-16)
(1.4803e-16 -5.66164e-17 -0 1.4803e-16 -0 1.4803e-16)
(1.4803e-16 -5.7029e-17 -0 1.4803e-16 -0 1.4803e-16)
(1.4803e-16 -5.70472e-17 -0 1.4803e-16 -0 1.4803e-16)
(1.4803e-16 -5.71049e-17 -0 1.4803e-16 -0 1.4803e-16)
(1.4803e-16 -5.72815e-17 -0 1.4803e-16 -0 1.4803e-16)
(1.4803e-16 -5.76473e-17 -0 1.4803e-16 -0 1.4803e-16)
(1.4803e-16 -5.76657e-17 -0 1.4803e-16 -0 1.4803e-16)
(1.4803e-16 -5.77246e-17 -0 1.4803e-16 -0 1.4803e-16)
(1.4803e-16 -5.79106e-17 -0 1.4803e-16 -0 1.4803e-16)
(1.4803e-16 -5.82368e-17 -0 1.4803e-16 -0 1.4803e-16)
(1.4803e-16 -5.82557e-17 -0 1.4803e-16 -0 1.4803e-16)
(1.4803e-16 -5.83159e-17 -0 1.4803e-16 -0 1.4803e-16)
(1.4803e-16 -5.85114e-17 -0 1.4803e-16 -0 1.4803e-16)
(1.4803e-16 -5.88039e-17 -0 1.4803e-16 -0 1.4803e-16)
(1.4803e-16 -5.88237e-17 -0 1.4803e-16 -0 1.4803e-16)
(1.4803e-16 -5.8885e-17 -0 1.4803e-16 -0 1.4803e-16)
(1.4803e-16 -5.90904e-17 -0 1.4803e-16 -0 1.4803e-16)
(1.4803e-16 -5.93542e-17 -0 1.4803e-16 -0 1.4803e-16)
(1.4803e-16 -5.93752e-17 -0 1.4803e-16 -0 1.4803e-16)
(1.4803e-16 -5.94371e-17 -0 1.4803e-16 -0 1.4803e-16)
(1.4803e-16 -5.96532e-17 -0 1.4803e-16 -0 1.4803e-16)
(1.4803e-16 -5.98928e-17 -0 1.4803e-16 -0 1.4803e-16)
(1.4803e-16 -5.99153e-17 -0 1.4803e-16 -0 1.4803e-16)
(1.4803e-16 -5.99771e-17 -0 1.4803e-16 -0 1.4803e-16)
(1.4803e-16 -6.02047e-17 -0 1.4803e-16 -0 1.4803e-16)
(1.4803e-16 -6.04251e-17 -0 1.4803e-16 -0 1.4803e-16)
(1.4803e-16 -6.04495e-17 -0 1.4803e-16 -0 1.4803e-16)
(1.4803e-16 -6.05105e-17 -0 1.4803e-16 -0 1.4803e-16)
(1.4803e-16 -6.07506e-17 -0 1.4803e-16 -0 1.4803e-16)
(1.4803e-16 -6.09576e-17 -0 1.4803e-16 -0 1.4803e-16)
(1.4803e-16 -6.09841e-17 -0 1.4803e-16 -0 1.4803e-16)
(1.4803e-16 -6.10438e-17 -0 1.4803e-16 -0 1.4803e-16)
(1.4803e-16 -6.12974e-17 -0 1.4803e-16 -0 1.4803e-16)
(1.4803e-16 -6.14964e-17 -0 1.4803e-16 -0 1.4803e-16)
(1.4803e-16 -6.15246e-17 -0 1.4803e-16 -0 1.4803e-16)
(1.4803e-16 -6.15834e-17 -0 1.4803e-16 -0 1.4803e-16)
(1.4803e-16 -6.18512e-17 -0 1.4803e-16 -0 1.4803e-16)
(1.4803e-16 -6.20448e-17 -0 1.4803e-16 -0 1.4803e-16)
(1.4803e-16 -6.20737e-17 -0 1.4803e-16 -0 1.4803e-16)
(1.4803e-16 -6.21327e-17 -0 1.4803e-16 -0 1.4803e-16)
(1.4803e-16 -6.24156e-17 -0 1.4803e-16 -0 1.4803e-16)
(1.4803e-16 -6.26005e-17 -0 1.4803e-16 -0 1.4803e-16)
(1.4803e-16 -6.26302e-17 -0 1.4803e-16 -0 1.4803e-16)
(1.4803e-16 -6.26894e-17 -0 1.4803e-16 -0 1.4803e-16)
(1.4803e-16 -6.29885e-17 -0 1.4803e-16 -0 1.4803e-16)
(1.4803e-16 -6.31536e-17 -0 1.4803e-16 -0 1.4803e-16)
(1.4803e-16 -6.31856e-17 -0 1.4803e-16 -0 1.4803e-16)
(1.4803e-16 -6.32445e-17 -0 1.4803e-16 -0 1.4803e-16)
(1.4803e-16 -6.35617e-17 -0 1.4803e-16 -0 1.4803e-16)
(1.4803e-16 -6.36888e-17 -0 1.4803e-16 -0 1.4803e-16)
(1.4803e-16 -6.37284e-17 -0 1.4803e-16 -0 1.4803e-16)
(1.4803e-16 -6.37859e-17 -0 1.4803e-16 -0 1.4803e-16)
(1.4803e-16 -6.41232e-17 -0 1.4803e-16 -0 1.4803e-16)
(1.4803e-16 -6.41865e-17 -0 1.4803e-16 -0 1.4803e-16)
(1.4803e-16 -6.42493e-17 -0 1.4803e-16 -0 1.4803e-16)
(1.4803e-16 -6.43024e-17 -0 1.4803e-16 -0 1.4803e-16)
(1.4803e-16 -6.46605e-17 -0 1.4803e-16 -0 1.4803e-16)
(1.4803e-16 -6.46743e-17 -0 1.4803e-16 -0 1.4803e-16)
(1.4803e-16 -6.47254e-17 -0 1.4803e-16 -0 1.4803e-16)
(1.4803e-16 -6.47859e-17 -0 1.4803e-16 -0 1.4803e-16)
(1.4803e-16 -6.51623e-17 -0 1.4803e-16 -0 1.4803e-16)
(1.4803e-16 -6.51369e-17 -0 1.4803e-16 -0 1.4803e-16)
(1.4803e-16 -6.51558e-17 -0 1.4803e-16 -0 1.4803e-16)
(1.4803e-16 -6.52303e-17 -0 1.4803e-16 -0 1.4803e-16)
(1.4803e-16 -6.56199e-17 -0 1.4803e-16 -0 1.4803e-16)
(1.4803e-16 -6.55326e-17 -0 1.4803e-16 -0 1.4803e-16)
(1.4803e-16 -6.55483e-17 -0 1.4803e-16 -0 1.4803e-16)
(1.4803e-16 -6.56291e-17 -0 1.4803e-16 -0 1.4803e-16)
(1.4803e-16 -6.60284e-17 -0 1.4803e-16 -0 1.4803e-16)
(1.4803e-16 -6.58795e-17 -0 1.4803e-16 -0 1.4803e-16)
(1.4803e-16 -6.58893e-17 -0 1.4803e-16 -0 1.4803e-16)
(1.4803e-16 -6.59818e-17 -0 1.4803e-16 -0 1.4803e-16)
(1.48056e-16 -6.63964e-17 -0 1.48056e-16 -0 1.48056e-16)
(1.48042e-16 -6.61802e-17 -0 1.48042e-16 -0 1.48042e-16)
(1.4803e-16 -6.61686e-17 -0 1.4803e-16 -0 1.4803e-16)
(1.4803e-16 -6.62886e-17 -0 1.4803e-16 -0 1.4803e-16)
(1.48166e-16 -6.67475e-17 -0 1.48166e-16 -0 1.48166e-16)
(1.48145e-16 -6.64641e-17 -0 1.48145e-16 -0 1.48145e-16)
(1.4803e-16 -6.63897e-17 -0 1.4803e-16 -0 1.4803e-16)
(1.48045e-16 -6.65458e-17 -0 1.48045e-16 -0 1.48045e-16)
(1.48284e-16 -6.70506e-17 -0 1.48284e-16 -0 1.48284e-16)
(1.48251e-16 -6.66902e-17 -0 1.48251e-16 -0 1.48251e-16)
(1.48085e-16 -6.65962e-17 -0 1.48085e-16 -0 1.48085e-16)
(1.48107e-16 -6.67622e-17 -0 1.48107e-16 -0 1.48107e-16)
(1.48393e-16 -6.7297e-17 -0 1.48393e-16 -0 1.48393e-16)
(1.48341e-16 -6.68501e-17 -0 1.48341e-16 -0 1.48341e-16)
(1.48141e-16 -6.67503e-17 -0 1.48141e-16 -0 1.48141e-16)
(1.48163e-16 -6.69182e-17 -0 1.48163e-16 -0 1.48163e-16)
(1.48482e-16 -6.74802e-17 -0 1.48482e-16 -0 1.48482e-16)
(1.48401e-16 -6.69494e-17 -0 1.48401e-16 -0 1.48401e-16)
(1.4818e-16 -6.68405e-17 -0 1.4818e-16 -0 1.4818e-16)
(1.48202e-16 -6.70135e-17 -0 1.48202e-16 -0 1.48202e-16)
(1.48538e-16 -6.75953e-17 -0 1.48538e-16 -0 1.48538e-16)
(1.48423e-16 -6.69677e-17 -0 1.48423e-16 -0 1.48423e-16)
(1.48195e-16 -6.68705e-17 -0 1.48195e-16 -0 1.48195e-16)
(1.48216e-16 -6.70442e-17 -0 1.48216e-16 -0 1.48216e-16)
(1.48558e-16 -6.7637e-17 -0 1.48558e-16 -0 1.48558e-16)
(1.48403e-16 -6.69217e-17 -0 1.48403e-16 -0 1.48403e-16)
(1.48181e-16 -6.68319e-17 -0 1.48181e-16 -0 1.48181e-16)
(1.48202e-16 -6.70075e-17 -0 1.48202e-16 -0 1.48202e-16)
(1.48538e-16 -6.76067e-17 -0 1.48538e-16 -0 1.48538e-16)
(1.48345e-16 -6.6808e-17 -0 1.48345e-16 -0 1.48345e-16)
(1.48142e-16 -6.67269e-17 -0 1.48142e-16 -0 1.48142e-16)
(1.48162e-16 -6.69049e-17 -0 1.48162e-16 -0 1.48162e-16)
(1.48482e-16 -6.75035e-17 -0 1.48482e-16 -0 1.48482e-16)
(1.48255e-16 -6.66261e-17 -0 1.48255e-16 -0 1.48255e-16)
(1.48084e-16 -6.65596e-17 -0 1.48084e-16 -0 1.48084e-16)
(1.48105e-16 -6.67396e-17 -0 1.48105e-16 -0 1.48105e-16)
(1.48394e-16 -6.73285e-17 -0 1.48394e-16 -0 1.48394e-16)
(1.48146e-16 -6.63812e-17 -0 1.48146e-16 -0 1.48146e-16)
(1.4803e-16 -6.63391e-17 -0 1.4803e-16 -0 1.4803e-16)
(1.48043e-16 -6.65154e-17 -0 1.48043e-16 -0 1.48043e-16)
(1.48285e-16 -6.70845e-17 -0 1.48285e-16 -0 1.48285e-16)
(1.48038e-16 -6.6082e-17 -0 1.48038e-16 -0 1.48038e-16)
(1.4803e-16 -6.60888e-17 -0 1.4803e-16 -0 1.4803e-16)
(1.4803e-16 -6.62521e-17 -0 1.4803e-16 -0 1.4803e-16)
(1.48167e-16 -6.6775e-17 -0 1.48167e-16 -0 1.48167e-16)
(1.4803e-16 -6.57671e-17 -0 1.4803e-16 -0 1.4803e-16)
(1.4803e-16 -6.57872e-17 -0 1.4803e-16 -0 1.4803e-16)
(1.4803e-16 -6.59257e-17 -0 1.4803e-16 -0 1.4803e-16)
(1.48056e-16 -6.6404e-17 -0 1.48056e-16 -0 1.48056e-16)
(1.4803e-16 -6.53716e-17 -0 1.4803e-16 -0 1.4803e-16)
(1.4803e-16 -6.54569e-17 -0 1.4803e-16 -0 1.4803e-16)
(1.4803e-16 -6.55168e-17 -0 1.4803e-16 -0 1.4803e-16)
(1.4803e-16 -6.60026e-17 -0 1.4803e-16 -0 1.4803e-16)
(1.4803e-16 -6.4918e-17 -0 1.4803e-16 -0 1.4803e-16)
(1.4803e-16 -6.49785e-17 -0 1.4803e-16 -0 1.4803e-16)
(1.4803e-16 -6.50616e-17 -0 1.4803e-16 -0 1.4803e-16)
(1.4803e-16 -6.55416e-17 -0 1.4803e-16 -0 1.4803e-16)
(1.4803e-16 -6.43974e-17 -0 1.4803e-16 -0 1.4803e-16)
(1.4803e-16 -6.43773e-17 -0 1.4803e-16 -0 1.4803e-16)
(1.4803e-16 -6.45425e-17 -0 1.4803e-16 -0 1.4803e-16)
(1.4803e-16 -6.50054e-17 -0 1.4803e-16 -0 1.4803e-16)
(1.4803e-16 -6.37762e-17 -0 1.4803e-16 -0 1.4803e-16)
(1.4803e-16 -6.37788e-17 -0 1.4803e-16 -0 1.4803e-16)
(1.4803e-16 -6.39153e-17 -0 1.4803e-16 -0 1.4803e-16)
(1.4803e-16 -6.43851e-17 -0 1.4803e-16 -0 1.4803e-16)
(1.4803e-16 -6.30511e-17 -0 1.4803e-16 -0 1.4803e-16)
(1.4803e-16 -6.3149e-17 -0 1.4803e-16 -0 1.4803e-16)
(1.4803e-16 -6.31846e-17 -0 1.4803e-16 -0 1.4803e-16)
(1.4803e-16 -6.36768e-17 -0 1.4803e-16 -0 1.4803e-16)
(1.4803e-16 -6.22202e-17 -0 1.4803e-16 -0 1.4803e-16)
(1.4803e-16 -6.23621e-17 -0 1.4803e-16 -0 1.4803e-16)
(1.4803e-16 -6.23804e-17 -0 1.4803e-16 -0 1.4803e-16)
(1.4803e-16 -6.2876e-17 -0 1.4803e-16 -0 1.4803e-16)
(1.4803e-16 -6.13058e-17 -0 1.4803e-16 -0 1.4803e-16)
(1.4803e-16 -6.14657e-17 -0 1.4803e-16 -0 1.4803e-16)
(1.4803e-16 -6.14744e-17 -0 1.4803e-16 -0 1.4803e-16)
(1.4803e-16 -6.19749e-17 -0 1.4803e-16 -0 1.4803e-16)
(1.4803e-16 -6.02937e-17 -0 1.4803e-16 -0 1.4803e-16)
(1.4803e-16 -6.04588e-17 -0 1.4803e-16 -0 1.4803e-16)
(1.4803e-16 -6.04594e-17 -0 1.4803e-16 -0 1.4803e-16)
(1.4803e-16 -6.09657e-17 -0 1.4803e-16 -0 1.4803e-16)
(1.4803e-16 -5.91717e-17 -0 1.4803e-16 -0 1.4803e-16)
(1.4803e-16 -5.9337e-17 -0 1.4803e-16 -0 1.4803e-16)
(1.4803e-16 -5.93303e-17 -0 1.4803e-16 -0 1.4803e-16)
(1.4803e-16 -5.98403e-17 -0 1.4803e-16 -0 1.4803e-16)
(1.4803e-16 -5.79283e-17 -0 1.4803e-16 -0 1.4803e-16)
(1.4803e-16 -5.80943e-17 -0 1.4803e-16 -0 1.4803e-16)
(1.4803e-16 -5.80834e-17 -0 1.4803e-16 -0 1.4803e-16)
(1.4803e-16 -5.85899e-17 -0 1.4803e-16 -0 1.4803e-16)
(1.4803e-16 -5.65534e-17 -0 1.4803e-16 -0 1.4803e-16)
(1.4803e-16 -5.67221e-17 -0 1.4803e-16 -0 1.4803e-16)
(1.4803e-16 -5.67105e-17 -0 1.4803e-16 -0 1.4803e-16)
(1.4803e-16 -5.72057e-17 -0 1.4803e-16 -0 1.4803e-16)
(1.4803e-16 -5.50368e-17 -0 1.4803e-16 -0 1.4803e-16)
(1.4803e-16 -5.52081e-17 -0 1.4803e-16 -0 1.4803e-16)
(1.4803e-16 -5.52008e-17 -0 1.4803e-16 -0 1.4803e-16)
(1.4803e-16 -5.56765e-17 -0 1.4803e-16 -0 1.4803e-16)
(1.4803e-16 -5.33668e-17 -0 1.4803e-16 -0 1.4803e-16)
(1.4803e-16 -5.35368e-17 -0 1.4803e-16 -0 1.4803e-16)
(1.4803e-16 -5.35343e-17 -0 1.4803e-16 -0 1.4803e-16)
(1.4803e-16 -5.39949e-17 -0 1.4803e-16 -0 1.4803e-16)
(1.4803e-16 -5.15314e-17 -0 1.4803e-16 -0 1.4803e-16)
(1.4803e-16 -5.17e-17 -0 1.4803e-16 -0 1.4803e-16)
(1.4803e-16 -5.1704e-17 -0 1.4803e-16 -0 1.4803e-16)
(1.4803e-16 -5.21453e-17 -0 1.4803e-16 -0 1.4803e-16)
(1.4803e-16 -4.95196e-17 -0 1.4803e-16 -0 1.4803e-16)
(1.4803e-16 -4.96853e-17 -0 1.4803e-16 -0 1.4803e-16)
(1.4803e-16 -4.96937e-17 -0 1.4803e-16 -0 1.4803e-16)
(1.4803e-16 -5.01158e-17 -0 1.4803e-16 -0 1.4803e-16)
(1.4803e-16 -4.73193e-17 -0 1.4803e-16 -0 1.4803e-16)
(1.4803e-16 -4.74796e-17 -0 1.4803e-16 -0 1.4803e-16)
(1.4803e-16 -4.74898e-17 -0 1.4803e-16 -0 1.4803e-16)
(1.4803e-16 -4.78938e-17 -0 1.4803e-16 -0 1.4803e-16)
(1.4803e-16 -4.49179e-17 -0 1.4803e-16 -0 1.4803e-16)
(1.4803e-16 -4.5069e-17 -0 1.4803e-16 -0 1.4803e-16)
(1.4803e-16 -4.50796e-17 -0 1.4803e-16 -0 1.4803e-16)
(1.4803e-16 -4.54661e-17 -0 1.4803e-16 -0 1.4803e-16)
(1.4803e-16 -4.2302e-17 -0 1.4803e-16 -0 1.4803e-16)
(1.4803e-16 -4.24393e-17 -0 1.4803e-16 -0 1.4803e-16)
(1.4803e-16 -4.24506e-17 -0 1.4803e-16 -0 1.4803e-16)
(1.4803e-16 -4.28201e-17 -0 1.4803e-16 -0 1.4803e-16)
(1.4803e-16 -3.94581e-17 -0 1.4803e-16 -0 1.4803e-16)
(1.4803e-16 -3.95749e-17 -0 1.4803e-16 -0 1.4803e-16)
(1.4803e-16 -3.95914e-17 -0 1.4803e-16 -0 1.4803e-16)
(1.4803e-16 -3.99445e-17 -0 1.4803e-16 -0 1.4803e-16)
(1.4803e-16 -3.63712e-17 -0 1.4803e-16 -0 1.4803e-16)
(1.4803e-16 -3.64576e-17 -0 1.4803e-16 -0 1.4803e-16)
(1.4803e-16 -3.64915e-17 -0 1.4803e-16 -0 1.4803e-16)
(1.4803e-16 -3.68302e-17 -0 1.4803e-16 -0 1.4803e-16)
(1.4803e-16 -3.30227e-17 -0 1.4803e-16 -0 1.4803e-16)
(1.4803e-16 -3.30624e-17 -0 1.4803e-16 -0 1.4803e-16)
(1.4803e-16 -3.31383e-17 -0 1.4803e-16 -0 1.4803e-16)
(1.4803e-16 -3.34716e-17 -0 1.4803e-16 -0 1.4803e-16)
(1.4803e-16 -2.93818e-17 -0 1.4803e-16 -0 1.4803e-16)
(1.4803e-16 -2.95327e-17 -0 1.4803e-16 -0 1.4803e-16)
(1.4803e-16 -2.9466e-17 -0 1.4803e-16 -0 1.4803e-16)
(1.4803e-16 -2.98579e-17 -0 1.4803e-16 -0 1.4803e-16)
(1.4803e-16 -2.55366e-17 -0 1.4803e-16 -0 1.4803e-16)
(1.4803e-16 -2.56625e-17 -0 1.4803e-16 -0 1.4803e-16)
(1.4803e-16 -2.56068e-17 -0 1.4803e-16 -0 1.4803e-16)
(1.4803e-16 -2.59504e-17 -0 1.4803e-16 -0 1.4803e-16)
(1.4803e-16 -2.14304e-17 -0 1.4803e-16 -0 1.4803e-16)
(1.4803e-16 -2.15239e-17 -0 1.4803e-16 -0 1.4803e-16)
(1.4803e-16 -2.14881e-17 -0 1.4803e-16 -0 1.4803e-16)
(1.4803e-16 -2.17709e-17 -0 1.4803e-16 -0 1.4803e-16)
(1.4803e-16 -1.70714e-17 -0 1.4803e-16 -0 1.4803e-16)
(1.4803e-16 -1.71191e-17 -0 1.4803e-16 -0 1.4803e-16)
(1.4803e-16 -1.71269e-17 -0 1.4803e-16 -0 1.4803e-16)
(1.4803e-16 -1.73237e-17 -0 1.4803e-16 -0 1.4803e-16)
(1.4803e-16 -1.2478e-17 -0 1.4803e-16 -0 1.4803e-16)
(1.4803e-16 -1.24554e-17 -0 1.4803e-16 -0 1.4803e-16)
(1.4803e-16 -1.25331e-17 -0 1.4803e-16 -0 1.4803e-16)
(1.4803e-16 -1.2625e-17 -0 1.4803e-16 -0 1.4803e-16)
(1.4803e-16 -7.61981e-18 -0 1.4803e-16 -0 1.4803e-16)
(1.4803e-16 -7.60878e-18 -0 1.4803e-16 -0 1.4803e-16)
(1.4803e-16 -7.66247e-18 -0 1.4803e-16 -0 1.4803e-16)
(1.4803e-16 -7.71265e-18 -0 1.4803e-16 -0 1.4803e-16)
(1.4803e-16 -2.57073e-18 -0 1.4803e-16 -0 1.4803e-16)
(1.4803e-16 -2.5698e-18 -0 1.4803e-16 -0 1.4803e-16)
(1.4803e-16 -2.58766e-18 -0 1.4803e-16 -0 1.4803e-16)
(1.4803e-16 -2.60577e-18 -0 1.4803e-16 -0 1.4803e-16)
)
;

boundaryField
{
    inlet
    {
        type            cyclic;
    }
    outlet
    {
        type            cyclic;
    }
    fixedWalls-bottom
    {
        type            kqRWallFunction;
        value           uniform (1.4803e-16 -0 -0 1.4803e-16 -0 1.4803e-16);
    }
    fixedWalls-top
    {
        type            symmetry;
    }
    frontAndBack
    {
        type            empty;
    }
}


// ************************************************************************* //
