/*--------------------------------*- C++ -*----------------------------------*\
  =========                 |
  \\      /  F ield         | OpenFOAM: The Open Source CFD Toolbox
   \\    /   O peration     | Website:  https://openfoam.org
    \\  /    A nd           | Version:  10
     \\/     M anipulation  |
\*---------------------------------------------------------------------------*/
FoamFile
{
    format      ascii;
    class       volScalarField;
    location    "2500";
    object      k;
}
// * * * * * * * * * * * * * * * * * * * * * * * * * * * * * * * * * * * * * //

dimensions      [0 2 -2 0 0 0 0];

internalField   nonuniform List<scalar> 
400
(
1.25754e-05
1.25773e-05
1.25772e-05
1.25718e-05
0.000375176
0.000375235
0.000375231
0.00037507
0.00244716
0.00244751
0.00244748
0.00244647
0.0063935
0.00639425
0.00639413
0.00639178
0.00999196
0.00999291
0.00999266
0.00998919
0.0126535
0.0126545
0.0126541
0.0126496
0.0146944
0.0146954
0.0146948
0.0146891
0.0163865
0.0163874
0.0163866
0.0163798
0.017881
0.0178817
0.0178807
0.0178726
0.0192559
0.0192561
0.0192549
0.0192455
0.0205512
0.020551
0.0205495
0.0205389
0.0217881
0.0217879
0.0217863
0.0217743
0.0229789
0.0229791
0.0229772
0.0229641
0.0241317
0.0241321
0.02413
0.0241156
0.0252512
0.0252517
0.0252494
0.0252339
0.0263409
0.0263414
0.0263389
0.0263224
0.0274034
0.0274039
0.0274012
0.0273837
0.0284407
0.0284412
0.0284383
0.0284199
0.0294544
0.029455
0.0294519
0.0294325
0.0304459
0.0304466
0.0304433
0.030423
0.0314165
0.0314172
0.0314137
0.0313926
0.032367
0.0323678
0.0323642
0.0323422
0.0332985
0.0332993
0.0332955
0.0332728
0.0342115
0.0342124
0.0342084
0.034185
0.0351068
0.0351077
0.0351035
0.0350794
0.0359849
0.0359859
0.0359815
0.0359568
0.0368463
0.0368473
0.0368427
0.0368174
0.0376915
0.0376924
0.0376877
0.0376618
0.0385208
0.0385213
0.0385167
0.0384903
0.0393347
0.0393345
0.0393302
0.0393031
0.0401335
0.0401324
0.0401283
0.0401005
0.0409168
0.0409153
0.0409112
0.0408828
0.0416848
0.0416832
0.0416791
0.0416502
0.0424379
0.0424364
0.0424322
0.0424027
0.0431762
0.0431748
0.0431705
0.0431405
0.0438996
0.0438988
0.0438942
0.0438637
0.0446082
0.0446084
0.0446033
0.0445724
0.0453028
0.0453038
0.0452979
0.0452666
0.0459831
0.0459848
0.0459782
0.0459464
0.0466491
0.0466513
0.046644
0.0466118
0.0473008
0.0473031
0.0472955
0.0472629
0.047938
0.0479405
0.0479326
0.0478996
0.0485609
0.0485634
0.0485554
0.0485219
0.0491694
0.0491719
0.0491638
0.0491299
0.0497635
0.049766
0.0497578
0.0497235
0.0503432
0.0503457
0.0503374
0.0503028
0.0509085
0.050911
0.0509026
0.0508676
0.0514593
0.0514619
0.0514534
0.051418
0.0519956
0.0519982
0.0519897
0.051954
0.0525175
0.0525201
0.0525115
0.0524755
0.0530249
0.0530275
0.0530188
0.0529825
0.0535177
0.0535204
0.0535116
0.053475
0.053996
0.0539988
0.0539898
0.053953
0.0544598
0.0544626
0.0544536
0.0544165
0.054909
0.0549119
0.0549027
0.0548654
0.0553436
0.0553465
0.0553374
0.0552998
0.0557636
0.0557666
0.0557574
0.0557196
0.0561691
0.0561721
0.0561629
0.0561249
0.05656
0.0565629
0.0565539
0.0565156
0.0569364
0.056939
0.0569304
0.0568917
0.0572983
0.0573006
0.0572923
0.0572534
0.0576456
0.0576477
0.0576398
0.0576006
0.0579786
0.0579803
0.0579728
0.0579334
0.0582971
0.0582986
0.0582914
0.0582518
0.0586012
0.0586026
0.0585956
0.0585558
0.0588911
0.0588924
0.0588856
0.0588456
0.0591668
0.059168
0.0591613
0.0591212
0.0594283
0.0594295
0.0594228
0.0593827
0.0596759
0.0596771
0.0596703
0.0596301
0.0599095
0.0599107
0.0599039
0.0598637
0.0601294
0.0601306
0.0601236
0.0600836
0.0603357
0.0603367
0.0603298
0.0602898
0.0605287
0.0605292
0.0605224
0.0604825
0.0607086
0.0607081
0.0607018
0.0606618
0.060876
0.0608738
0.0608681
0.0608281
0.0610299
0.0610269
0.0610215
0.0609814
0.0611708
0.0611674
0.0611622
0.061122
0.061299
0.0612955
0.0612904
0.0612501
0.061415
0.0614114
0.0614063
0.061366
0.061519
0.0615153
0.0615103
0.0614699
0.0616114
0.0616075
0.0616026
0.0615622
0.0616924
0.0616885
0.0616836
0.0616432
0.0617624
0.0617585
0.0617536
0.0617132
0.0618218
0.0618179
0.061813
0.0617726
0.0618709
0.0618672
0.0618622
0.0618219
0.0619103
0.0619067
0.0619017
0.0618614
0.0619403
0.0619371
0.0619318
0.0618916
0.0619613
0.0619588
0.0619531
0.0619131
0.0619738
0.0619725
0.0619661
0.0619264
0.0619779
0.0619791
0.0619715
0.0619321
0.0619759
0.0619796
0.0619699
0.0619308
0.0619681
0.0619735
0.0619621
0.0619233
0.061955
0.0619614
0.0619489
0.0619102
0.0619372
0.0619443
0.0619312
0.0618925
0.0619156
0.0619232
0.0619097
0.0618709
0.0618911
0.0618992
0.0618853
0.0618464
0.0618646
0.0618732
0.0618589
0.0618199
0.0618371
0.0618463
0.0618316
0.0617925
0.0618097
0.0618195
0.0618044
0.0617653
0.0617834
0.0617939
0.0617781
0.0617392
)
;

boundaryField
{
    inlet
    {
        type            cyclic;
    }
    outlet
    {
        type            cyclic;
    }
    fixedWalls-bottom
    {
        type            kqRWallFunction;
        value           nonuniform List<scalar> 4(1.25754e-05 1.25773e-05 1.25772e-05 1.25718e-05);
    }
    fixedWalls-top
    {
        type            symmetry;
    }
    frontAndBack
    {
        type            empty;
    }
}


// ************************************************************************* //
