/*--------------------------------*- C++ -*----------------------------------*\
  =========                 |
  \\      /  F ield         | OpenFOAM: The Open Source CFD Toolbox
   \\    /   O peration     | Website:  https://openfoam.org
    \\  /    A nd           | Version:  10
     \\/     M anipulation  |
\*---------------------------------------------------------------------------*/
FoamFile
{
    format      ascii;
    class       volScalarField;
    location    "2500";
    object      nut;
}
// * * * * * * * * * * * * * * * * * * * * * * * * * * * * * * * * * * * * * //

dimensions      [0 2 -1 0 0 0 0];

internalField   nonuniform List<scalar> 
400
(
5.42844e-09
5.42929e-09
5.42924e-09
5.4269e-09
9.20923e-07
9.21066e-07
9.21055e-07
9.20662e-07
1.57855e-05
1.57878e-05
1.57875e-05
1.57812e-05
7.37077e-05
7.37164e-05
7.37149e-05
7.36881e-05
0.000176494
0.000176512
0.000176507
0.000176444
0.000316685
0.000316712
0.000316701
0.000316579
0.000493252
0.000493287
0.000493263
0.000493055
0.00070662
0.000706657
0.000706612
0.000706289
0.00095651
0.000956537
0.000956468
0.000955997
0.00124172
0.00124172
0.00124162
0.00124098
0.00156039
0.00156036
0.00156023
0.00155938
0.00191032
0.00191028
0.00191012
0.00190906
0.00228921
0.00228921
0.00228901
0.00228772
0.00269489
0.00269491
0.00269468
0.00269315
0.00312522
0.00312527
0.00312499
0.00312323
0.00357822
0.00357829
0.00357798
0.00357598
0.00405208
0.00405217
0.00405181
0.00404958
0.00454511
0.00454523
0.00454482
0.00454235
0.00505578
0.00505592
0.00505548
0.00505277
0.00558269
0.00558287
0.00558239
0.00557944
0.00612457
0.00612478
0.00612426
0.00612108
0.00668025
0.00668049
0.00667993
0.00667652
0.00724865
0.00724892
0.00724832
0.00724469
0.00782879
0.0078291
0.00782845
0.00782459
0.00841976
0.00842012
0.0084194
0.00841533
0.00902074
0.00902113
0.00902034
0.00901607
0.00963095
0.00963136
0.00963051
0.00962602
0.0102497
0.0102501
0.0102492
0.0102445
0.0108763
0.0108766
0.0108757
0.0108708
0.0115102
0.0115102
0.0115094
0.0115042
0.0121508
0.0121505
0.0121498
0.0121444
0.0127973
0.0127968
0.0127963
0.0127905
0.0134494
0.0134488
0.0134483
0.0134423
0.0141065
0.0141059
0.0141054
0.0140991
0.0147681
0.0147676
0.014767
0.0147606
0.0154339
0.0154335
0.0154329
0.0154262
0.0161033
0.0161033
0.0161025
0.0160955
0.0167762
0.0167766
0.0167755
0.0167682
0.0174522
0.0174528
0.0174514
0.0174439
0.0181308
0.0181316
0.0181299
0.0181222
0.0188116
0.0188126
0.0188107
0.0188027
0.0194943
0.0194953
0.0194933
0.019485
0.0201785
0.0201795
0.0201775
0.020169
0.0208639
0.0208649
0.0208628
0.0208541
0.0215501
0.0215512
0.0215491
0.0215401
0.0222368
0.022238
0.0222358
0.0222266
0.0229238
0.0229249
0.0229227
0.0229134
0.0236106
0.0236118
0.0236096
0.0236
0.024297
0.0242983
0.024296
0.0242863
0.0249827
0.024984
0.0249817
0.0249718
0.0256673
0.0256686
0.0256663
0.0256562
0.0263505
0.0263518
0.0263495
0.0263392
0.027032
0.0270334
0.0270309
0.0270206
0.0277114
0.0277129
0.0277104
0.0276999
0.0283885
0.02839
0.0283874
0.0283768
0.0290628
0.0290643
0.0290618
0.029051
0.0297341
0.0297356
0.0297331
0.0297221
0.0304019
0.0304035
0.0304009
0.0303899
0.031066
0.0310675
0.0310651
0.0310538
0.0317259
0.0317273
0.031725
0.0317137
0.0323813
0.0323826
0.0323805
0.032369
0.0330318
0.0330329
0.0330311
0.0330194
0.0336771
0.033678
0.0336764
0.0336646
0.0343166
0.0343174
0.034316
0.034304
0.03495
0.0349507
0.0349495
0.0349374
0.0355768
0.0355775
0.0355764
0.0355642
0.0361967
0.0361973
0.0361963
0.0361841
0.0368092
0.0368098
0.0368087
0.0367965
0.0374138
0.0374143
0.0374133
0.037401
0.0380099
0.0380105
0.0380094
0.0379972
0.0385973
0.0385978
0.0385967
0.0385845
0.0391752
0.0391756
0.0391745
0.0391623
0.0397434
0.0397434
0.0397425
0.0397303
0.0403013
0.0403006
0.0403
0.0402878
0.0408485
0.0408467
0.0408465
0.0408342
0.0413837
0.0413814
0.0413814
0.0413691
0.0419066
0.0419039
0.041904
0.0418916
0.0424165
0.0424136
0.0424138
0.0424014
0.0429128
0.0429098
0.0429101
0.0428976
0.0433949
0.0433919
0.0433922
0.0433796
0.0438622
0.043859
0.0438594
0.0438468
0.0443139
0.0443106
0.044311
0.0442984
0.0447492
0.0447459
0.0447463
0.0447336
0.0451674
0.0451641
0.0451645
0.0451518
0.0455678
0.0455644
0.0455648
0.0455521
0.0459494
0.0459461
0.0459464
0.0459337
0.0463114
0.0463083
0.0463085
0.0462959
0.0466529
0.0466503
0.0466502
0.0466376
0.0469729
0.0469711
0.0469706
0.0469582
0.0472701
0.0472702
0.0472687
0.0472566
0.0475449
0.0475468
0.0475438
0.0475319
0.047796
0.0477992
0.0477949
0.0477832
0.0480223
0.0480262
0.0480211
0.0480095
0.0482226
0.048227
0.0482214
0.0482098
0.0483959
0.0484006
0.0483948
0.0483832
0.0485411
0.0485462
0.0485402
0.0485285
0.0486572
0.0486625
0.0486565
0.0486446
0.048743
0.0487487
0.0487425
0.0487306
0.0487973
0.0488036
0.0487971
0.0487853
0.0488191
0.0488261
0.0488192
0.0488075
)
;

boundaryField
{
    inlet
    {
        type            cyclic;
    }
    outlet
    {
        type            cyclic;
    }
    fixedWalls-bottom
    {
        type            nutkWallFunction;
        Cmu             0.09;
        kappa           0.41;
        E               9.8;
        value           uniform 0;
    }
    fixedWalls-top
    {
        type            symmetry;
    }
    frontAndBack
    {
        type            empty;
    }
}


// ************************************************************************* //
