/*--------------------------------*- C++ -*----------------------------------*\
  =========                 |
  \\      /  F ield         | OpenFOAM: The Open Source CFD Toolbox
   \\    /   O peration     | Website:  https://openfoam.org
    \\  /    A nd           | Version:  10
     \\/     M anipulation  |
\*---------------------------------------------------------------------------*/
FoamFile
{
    format      ascii;
    class       volScalarField;
    location    "2500";
    object      omega;
}
// * * * * * * * * * * * * * * * * * * * * * * * * * * * * * * * * * * * * * //

dimensions      [0 0 -1 0 0 0 0];

internalField   nonuniform List<scalar> 
400
(
2316.57
2316.57
2316.57
2316.57
407.392
407.392
407.393
407.391
155.025
155.026
155.026
155.024
86.7412
86.7412
86.7414
86.7411
56.6135
56.6133
56.6133
56.614
39.9562
39.956
39.9561
39.9572
29.7908
29.7908
29.791
29.7921
23.19
23.19
23.1904
23.1913
18.694
18.6942
18.6945
18.6952
15.5074
15.5076
15.5078
15.5083
13.1705
13.1707
13.1708
13.1711
11.4055
11.4056
11.4057
11.4058
10.0379
10.038
10.0381
10.038
8.95462
8.95468
8.95468
8.95443
8.07983
8.07985
8.07982
8.07944
7.36145
7.36145
7.3614
7.3609
6.7628
6.76278
6.7627
6.76212
6.25742
6.25739
6.25729
6.25664
5.82588
5.82584
5.82573
5.82502
5.45363
5.45357
5.45345
5.4527
5.12958
5.12952
5.12939
5.1286
4.84518
4.84512
4.84499
4.84417
4.59375
4.59368
4.59354
4.59271
4.36996
4.3699
4.36975
4.36891
4.16957
4.16951
4.16936
4.16852
3.98913
3.98907
3.98893
3.98808
3.82583
3.82577
3.82563
3.82478
3.67734
3.67728
3.67714
3.67631
3.54172
3.54168
3.54154
3.54072
3.41737
3.41735
3.41721
3.4164
3.30295
3.30294
3.30279
3.30199
3.19728
3.19729
3.19712
3.19633
3.09939
3.0994
3.09922
3.09844
3.0084
3.00842
3.00823
3.00747
2.92361
2.92362
2.92344
2.92269
2.84437
2.84438
2.8442
2.84346
2.77013
2.77014
2.76996
2.76924
2.70041
2.70042
2.70025
2.69954
2.6348
2.63481
2.63464
2.63395
2.57292
2.57292
2.57276
2.57209
2.51444
2.51444
2.51429
2.51363
2.45908
2.45908
2.45892
2.45827
2.40657
2.40657
2.40641
2.40577
2.35668
2.35668
2.35652
2.35589
2.3092
2.3092
2.30905
2.30842
2.26395
2.26396
2.2638
2.26318
2.22077
2.22077
2.22062
2.22
2.1795
2.1795
2.17934
2.17873
2.14
2.14
2.13984
2.13923
2.10215
2.10215
2.102
2.10139
2.06585
2.06585
2.0657
2.0651
2.03099
2.03099
2.03084
2.03024
1.99749
1.99749
1.99733
1.99674
1.96525
1.96525
1.9651
1.96451
1.9342
1.9342
1.93405
1.93346
1.90428
1.90428
1.90413
1.90354
1.87541
1.87542
1.87527
1.87468
1.84755
1.84756
1.84741
1.84683
1.82064
1.82065
1.8205
1.81992
1.79463
1.79464
1.79449
1.79392
1.76949
1.76949
1.76934
1.76877
1.74515
1.74516
1.74502
1.74445
1.7216
1.72161
1.72147
1.7209
1.6988
1.69881
1.69867
1.6981
1.67672
1.67672
1.67658
1.67602
1.65532
1.65533
1.65519
1.65463
1.63459
1.6346
1.63446
1.6339
1.6145
1.6145
1.61437
1.61381
1.59502
1.59503
1.5949
1.59435
1.57615
1.57616
1.57603
1.57548
1.55787
1.55788
1.55774
1.5572
1.54015
1.54016
1.54003
1.53948
1.52299
1.523
1.52287
1.52233
1.50637
1.50638
1.50625
1.50571
1.49029
1.4903
1.49017
1.48963
1.47473
1.47474
1.47461
1.47408
1.45969
1.45971
1.45958
1.45905
1.44517
1.44518
1.44506
1.44453
1.43116
1.43117
1.43105
1.43052
1.41765
1.41767
1.41754
1.41702
1.40466
1.40467
1.40455
1.40403
1.39217
1.39218
1.39206
1.39155
1.38019
1.38021
1.38008
1.37957
1.36872
1.36874
1.36862
1.36811
1.35778
1.3578
1.35768
1.35717
1.34736
1.34738
1.34726
1.34675
1.33747
1.33749
1.33737
1.33687
1.32813
1.32816
1.32803
1.32753
1.31935
1.31938
1.31925
1.31876
1.31114
1.31117
1.31105
1.31055
1.30352
1.30355
1.30343
1.30293
1.29651
1.29654
1.29642
1.29592
1.29013
1.29016
1.29004
1.28954
1.2844
1.28443
1.28431
1.28381
1.27936
1.27939
1.27926
1.27877
1.27502
1.27506
1.27493
1.27444
1.27144
1.27148
1.27134
1.27085
1.26864
1.26868
1.26854
1.26804
1.26666
1.2667
1.26656
1.26606
1.26556
1.26559
1.26545
1.26495
)
;

boundaryField
{
    inlet
    {
        type            cyclic;
    }
    outlet
    {
        type            cyclic;
    }
    fixedWalls-bottom
    {
        beta1           0.075;
        blended         0;
        type            omegaWallFunction;
        value           uniform 2316.57;
    }
    fixedWalls-top
    {
        type            symmetry;
    }
    frontAndBack
    {
        type            empty;
    }
}


// ************************************************************************* //
