/*--------------------------------*- C++ -*----------------------------------*\
  =========                 |
  \\      /  F ield         | OpenFOAM: The Open Source CFD Toolbox
   \\    /   O peration     | Website:  https://openfoam.org
    \\  /    A nd           | Version:  10
     \\/     M anipulation  |
\*---------------------------------------------------------------------------*/
FoamFile
{
    format      ascii;
    class       volVectorField;
    location    "2500";
    object      U;
}
// * * * * * * * * * * * * * * * * * * * * * * * * * * * * * * * * * * * * * //

dimensions      [0 1 -1 0 0 0 0];

internalField   nonuniform List<vector> 
400
(
(0.0852874 2.33529e-09 0)
(0.0852905 -1.52691e-09 0)
(0.0852918 8.06823e-10 0)
(0.0852847 1.83928e-09 0)
(0.255554 -4.2708e-08 0)
(0.255564 -4.43112e-08 0)
(0.255567 5.44799e-08 0)
(0.255546 4.36097e-08 0)
(0.418846 -1.5685e-07 0)
(0.418861 -1.22261e-07 0)
(0.418865 1.65041e-07 0)
(0.418831 1.22189e-07 0)
(0.553265 -3.10987e-07 0)
(0.553281 -2.19483e-07 0)
(0.553284 3.1833e-07 0)
(0.553247 2.19604e-07 0)
(0.649631 -4.76012e-07 0)
(0.649645 -3.07141e-07 0)
(0.649647 4.82546e-07 0)
(0.649612 3.07417e-07 0)
(0.717175 -6.33559e-07 0)
(0.717186 -3.7595e-07 0)
(0.717187 6.39588e-07 0)
(0.717155 3.76327e-07 0)
(0.765846 -7.78031e-07 0)
(0.765855 -4.27122e-07 0)
(0.765855 7.83663e-07 0)
(0.765828 4.27568e-07 0)
(0.802114 -9.06597e-07 0)
(0.80212 -4.63799e-07 0)
(0.80212 9.11926e-07 0)
(0.802096 4.64303e-07 0)
(0.829987 -1.01767e-06 0)
(0.829992 -4.89651e-07 0)
(0.829991 1.02274e-06 0)
(0.829972 4.90201e-07 0)
(0.852005 -1.11091e-06 0)
(0.852008 -5.08309e-07 0)
(0.852008 1.11577e-06 0)
(0.851992 5.08898e-07 0)
(0.869819 -1.18701e-06 0)
(0.869822 -5.22119e-07 0)
(0.869822 1.19169e-06 0)
(0.869809 5.22739e-07 0)
(0.884537 -1.24733e-06 0)
(0.884539 -5.3259e-07 0)
(0.884539 1.25186e-06 0)
(0.884529 5.33238e-07 0)
(0.896919 -1.29378e-06 0)
(0.89692 -5.40409e-07 0)
(0.89692 1.29816e-06 0)
(0.896912 5.41078e-07 0)
(0.9075 -1.32832e-06 0)
(0.9075 -5.458e-07 0)
(0.9075 1.33257e-06 0)
(0.907494 5.46489e-07 0)
(0.916665 -1.35285e-06 0)
(0.916665 -5.48969e-07 0)
(0.916666 1.35697e-06 0)
(0.916661 5.49672e-07 0)
(0.9247 -1.36902e-06 0)
(0.924699 -5.50088e-07 0)
(0.9247 1.37303e-06 0)
(0.924697 5.50805e-07 0)
(0.931816 -1.3783e-06 0)
(0.931815 -5.49362e-07 0)
(0.931816 1.38221e-06 0)
(0.931814 5.50089e-07 0)
(0.938176 -1.38192e-06 0)
(0.938175 -5.46979e-07 0)
(0.938175 1.38573e-06 0)
(0.938175 5.47715e-07 0)
(0.943906 -1.38093e-06 0)
(0.943905 -5.43118e-07 0)
(0.943905 1.38465e-06 0)
(0.943905 5.43861e-07 0)
(0.949106 -1.37618e-06 0)
(0.949104 -5.37936e-07 0)
(0.949105 1.3798e-06 0)
(0.949105 5.38686e-07 0)
(0.953853 -1.36838e-06 0)
(0.953852 -5.31579e-07 0)
(0.953852 1.37192e-06 0)
(0.953853 5.32333e-07 0)
(0.958213 -1.35812e-06 0)
(0.958211 -5.24176e-07 0)
(0.958212 1.36158e-06 0)
(0.958213 5.24935e-07 0)
(0.962237 -1.34588e-06 0)
(0.962235 -5.15847e-07 0)
(0.962235 1.34926e-06 0)
(0.962237 5.16609e-07 0)
(0.965968 -1.33206e-06 0)
(0.965966 -5.067e-07 0)
(0.965966 1.33536e-06 0)
(0.965968 5.07465e-07 0)
(0.969441 -1.317e-06 0)
(0.969439 -4.96839e-07 0)
(0.96944 1.32022e-06 0)
(0.969442 4.97606e-07 0)
(0.972687 -1.30098e-06 0)
(0.972685 -4.86367e-07 0)
(0.972686 1.30413e-06 0)
(0.972688 4.87136e-07 0)
(0.975731 -1.28426e-06 0)
(0.975729 -4.75387e-07 0)
(0.97573 1.28733e-06 0)
(0.975732 4.76157e-07 0)
(0.978595 -1.26709e-06 0)
(0.978593 -4.64011e-07 0)
(0.978593 1.27009e-06 0)
(0.978596 4.64781e-07 0)
(0.981297 -1.24967e-06 0)
(0.981295 -4.52354e-07 0)
(0.981295 1.25261e-06 0)
(0.981297 4.53124e-07 0)
(0.983852 -1.23218e-06 0)
(0.98385 -4.40522e-07 0)
(0.98385 1.23505e-06 0)
(0.983853 4.41292e-07 0)
(0.986275 -1.21469e-06 0)
(0.986273 -4.2855e-07 0)
(0.986273 1.2175e-06 0)
(0.986276 4.2932e-07 0)
(0.988578 -1.19723e-06 0)
(0.988576 -4.16474e-07 0)
(0.988576 1.19997e-06 0)
(0.988578 4.17244e-07 0)
(0.990771 -1.17981e-06 0)
(0.990769 -4.04271e-07 0)
(0.990769 1.18248e-06 0)
(0.990771 4.05039e-07 0)
(0.992863 -1.16244e-06 0)
(0.992861 -3.91926e-07 0)
(0.992861 1.16505e-06 0)
(0.992864 3.92694e-07 0)
(0.994863 -1.14516e-06 0)
(0.994861 -3.79464e-07 0)
(0.994861 1.14771e-06 0)
(0.994864 3.8023e-07 0)
(0.996778 -1.12802e-06 0)
(0.996776 -3.66907e-07 0)
(0.996776 1.13051e-06 0)
(0.996779 3.67671e-07 0)
(0.998614 -1.11107e-06 0)
(0.998613 -3.5428e-07 0)
(0.998613 1.11349e-06 0)
(0.998615 3.55042e-07 0)
(1.00038 -1.09426e-06 0)
(1.00038 -3.41665e-07 0)
(1.00038 1.09663e-06 0)
(1.00038 3.42425e-07 0)
(1.00207 -1.07754e-06 0)
(1.00207 -3.29119e-07 0)
(1.00207 1.07985e-06 0)
(1.00207 3.29877e-07 0)
(1.00371 -1.0608e-06 0)
(1.0037 -3.16757e-07 0)
(1.0037 1.06305e-06 0)
(1.00371 3.17513e-07 0)
(1.00528 -1.04392e-06 0)
(1.00528 -3.04631e-07 0)
(1.00528 1.04611e-06 0)
(1.00528 3.05385e-07 0)
(1.0068 -1.02683e-06 0)
(1.0068 -2.92763e-07 0)
(1.0068 1.02897e-06 0)
(1.0068 2.93514e-07 0)
(1.00826 -1.0095e-06 0)
(1.00826 -2.81145e-07 0)
(1.00826 1.01158e-06 0)
(1.00827 2.81893e-07 0)
(1.00968 -9.9191e-07 0)
(1.00968 -2.6976e-07 0)
(1.00968 9.93936e-07 0)
(1.00968 2.70505e-07 0)
(1.01105 -9.7408e-07 0)
(1.01105 -2.5858e-07 0)
(1.01105 9.76052e-07 0)
(1.01106 2.59322e-07 0)
(1.01238 -9.56029e-07 0)
(1.01238 -2.47577e-07 0)
(1.01238 9.57946e-07 0)
(1.01238 2.48316e-07 0)
(1.01367 -9.37772e-07 0)
(1.01367 -2.36728e-07 0)
(1.01367 9.39637e-07 0)
(1.01367 2.37463e-07 0)
(1.01492 -9.19327e-07 0)
(1.01492 -2.26015e-07 0)
(1.01492 9.21139e-07 0)
(1.01492 2.26746e-07 0)
(1.01613 -9.00703e-07 0)
(1.01613 -2.15428e-07 0)
(1.01613 9.02464e-07 0)
(1.01613 2.16155e-07 0)
(1.01731 -8.81911e-07 0)
(1.01731 -2.04963e-07 0)
(1.01731 8.8362e-07 0)
(1.01731 2.05686e-07 0)
(1.01846 -8.62955e-07 0)
(1.01845 -1.94621e-07 0)
(1.01845 8.64614e-07 0)
(1.01846 1.9534e-07 0)
(1.01957 -8.43843e-07 0)
(1.01957 -1.84406e-07 0)
(1.01957 8.45452e-07 0)
(1.01957 1.85121e-07 0)
(1.02065 -8.24586e-07 0)
(1.02065 -1.74322e-07 0)
(1.02065 8.26146e-07 0)
(1.02065 1.75032e-07 0)
(1.0217 -8.05197e-07 0)
(1.0217 -1.64372e-07 0)
(1.0217 8.06708e-07 0)
(1.0217 1.65077e-07 0)
(1.02273 -7.8569e-07 0)
(1.02272 -1.54563e-07 0)
(1.02272 7.87154e-07 0)
(1.02273 1.55263e-07 0)
(1.02372 -7.66085e-07 0)
(1.02372 -1.449e-07 0)
(1.02372 7.675e-07 0)
(1.02372 1.45594e-07 0)
(1.02469 -7.46396e-07 0)
(1.02469 -1.35391e-07 0)
(1.02469 7.47765e-07 0)
(1.02469 1.36079e-07 0)
(1.02564 -7.26642e-07 0)
(1.02564 -1.26046e-07 0)
(1.02564 7.27964e-07 0)
(1.02564 1.26728e-07 0)
(1.02656 -7.06837e-07 0)
(1.02656 -1.16876e-07 0)
(1.02656 7.08114e-07 0)
(1.02656 1.17552e-07 0)
(1.02746 -6.86998e-07 0)
(1.02746 -1.07893e-07 0)
(1.02746 6.8823e-07 0)
(1.02746 1.08563e-07 0)
(1.02833 -6.67137e-07 0)
(1.02833 -9.91112e-08 0)
(1.02833 6.68325e-07 0)
(1.02833 9.97739e-08 0)
(1.02918 -6.47269e-07 0)
(1.02918 -9.0542e-08 0)
(1.02918 6.48412e-07 0)
(1.02918 9.11973e-08 0)
(1.03001 -6.27402e-07 0)
(1.03001 -8.22007e-08 0)
(1.03001 6.28503e-07 0)
(1.03001 8.28485e-08 0)
(1.03082 -6.07549e-07 0)
(1.03082 -7.41015e-08 0)
(1.03082 6.08606e-07 0)
(1.03082 7.47412e-08 0)
(1.03161 -5.87719e-07 0)
(1.03161 -6.62619e-08 0)
(1.03161 5.88735e-07 0)
(1.03161 6.68933e-08 0)
(1.03238 -5.67931e-07 0)
(1.03238 -5.86991e-08 0)
(1.03238 5.68905e-07 0)
(1.03238 5.93215e-08 0)
(1.03312 -5.48204e-07 0)
(1.03312 -5.14324e-08 0)
(1.03312 5.49137e-07 0)
(1.03312 5.20457e-08 0)
(1.03385 -5.28565e-07 0)
(1.03385 -4.44801e-08 0)
(1.03385 5.29458e-07 0)
(1.03385 4.50837e-08 0)
(1.03456 -5.0904e-07 0)
(1.03456 -3.78635e-08 0)
(1.03455 5.09893e-07 0)
(1.03456 3.8457e-08 0)
(1.03524 -4.89659e-07 0)
(1.03524 -3.16029e-08 0)
(1.03524 4.90472e-07 0)
(1.03524 3.21856e-08 0)
(1.03591 -4.70448e-07 0)
(1.03591 -2.57217e-08 0)
(1.03591 4.71223e-07 0)
(1.03591 2.62933e-08 0)
(1.03656 -4.51444e-07 0)
(1.03656 -2.02433e-08 0)
(1.03656 4.52181e-07 0)
(1.03656 2.08031e-08 0)
(1.03719 -4.32684e-07 0)
(1.03719 -1.51925e-08 0)
(1.03719 4.33384e-07 0)
(1.03719 1.57401e-08 0)
(1.0378 -4.14212e-07 0)
(1.0378 -1.05829e-08 0)
(1.0378 4.14874e-07 0)
(1.0378 1.11174e-08 0)
(1.03839 -3.96053e-07 0)
(1.03839 -6.40116e-09 0)
(1.03839 3.9668e-07 0)
(1.03839 6.92228e-09 0)
(1.03896 -3.78211e-07 0)
(1.03896 -2.65493e-09 0)
(1.03896 3.78803e-07 0)
(1.03896 3.16172e-09 0)
(1.03951 -3.60662e-07 0)
(1.03951 6.78107e-10 0)
(1.03951 3.61219e-07 0)
(1.03951 -1.86243e-10 0)
(1.04004 -3.43366e-07 0)
(1.04004 3.59832e-09 0)
(1.04004 3.4389e-07 0)
(1.04004 -3.12241e-09 0)
(1.04055 -3.26294e-07 0)
(1.04055 6.10264e-09 0)
(1.04055 3.26785e-07 0)
(1.04055 -5.64335e-09 0)
(1.04105 -3.09425e-07 0)
(1.04105 8.19075e-09 0)
(1.04104 3.09885e-07 0)
(1.04105 -7.7492e-09 0)
(1.04152 -2.92748e-07 0)
(1.04152 9.86733e-09 0)
(1.04152 2.93176e-07 0)
(1.04152 -9.44429e-09 0)
(1.04197 -2.76254e-07 0)
(1.04197 1.11397e-08 0)
(1.04197 2.76652e-07 0)
(1.04197 -1.07364e-08 0)
(1.0424 -2.59936e-07 0)
(1.0424 1.20201e-08 0)
(1.0424 2.60305e-07 0)
(1.0424 -1.16373e-08 0)
(1.04281 -2.43787e-07 0)
(1.04281 1.25228e-08 0)
(1.04281 2.44127e-07 0)
(1.04281 -1.21617e-08 0)
(1.04319 -2.27799e-07 0)
(1.04319 1.26674e-08 0)
(1.04319 2.2811e-07 0)
(1.04319 -1.23287e-08 0)
(1.04356 -2.11963e-07 0)
(1.04356 1.24751e-08 0)
(1.04356 2.12248e-07 0)
(1.04356 -1.21598e-08 0)
(1.0439 -1.96276e-07 0)
(1.0439 1.19722e-08 0)
(1.0439 1.96534e-07 0)
(1.0439 -1.16812e-08 0)
(1.04422 -1.80739e-07 0)
(1.04422 1.11886e-08 0)
(1.04422 1.8097e-07 0)
(1.04422 -1.09225e-08 0)
(1.04451 -1.65364e-07 0)
(1.04451 1.01584e-08 0)
(1.04451 1.6557e-07 0)
(1.04451 -9.91765e-09 0)
(1.04478 -1.50175e-07 0)
(1.04478 8.9173e-09 0)
(1.04478 1.50357e-07 0)
(1.04478 -8.70212e-09 0)
(1.04502 -1.35192e-07 0)
(1.04502 7.49558e-09 0)
(1.04502 1.35351e-07 0)
(1.04502 -7.30565e-09 0)
(1.04523 -1.2042e-07 0)
(1.04523 5.95518e-09 0)
(1.04523 1.20555e-07 0)
(1.04523 -5.79043e-09 0)
(1.04542 -1.05844e-07 0)
(1.04542 4.35562e-09 0)
(1.04542 1.05958e-07 0)
(1.04542 -4.21582e-09 0)
(1.04558 -9.14361e-08 0)
(1.04558 2.78817e-09 0)
(1.04558 9.15287e-08 0)
(1.04558 -2.67286e-09 0)
(1.04571 -7.71664e-08 0)
(1.04571 1.35545e-09 0)
(1.04571 7.72386e-08 0)
(1.04571 -1.26455e-09 0)
(1.0458 -6.30052e-08 0)
(1.04581 1.7144e-10 0)
(1.04581 6.30582e-08 0)
(1.04581 -1.03733e-10 0)
(1.04587 -4.89274e-08 0)
(1.04587 -6.56433e-10 0)
(1.04587 4.89631e-08 0)
(1.04587 7.025e-10 0)
(1.0459 -3.49048e-08 0)
(1.0459 -1.02856e-09 0)
(1.0459 3.49224e-08 0)
(1.0459 1.05293e-09 0)
(1.04589 -2.09307e-08 0)
(1.04589 -8.90025e-10 0)
(1.04589 2.0934e-08 0)
(1.04589 8.86108e-10 0)
(1.04585 -6.96486e-09 0)
(1.04585 -3.62655e-10 0)
(1.04585 6.96392e-09 0)
(1.04585 3.70723e-10 0)
)
;

boundaryField
{
    inlet
    {
        type            cyclic;
    }
    outlet
    {
        type            cyclic;
    }
    fixedWalls-bottom
    {
        type            noSlip;
    }
    fixedWalls-top
    {
        type            symmetry;
    }
    frontAndBack
    {
        type            empty;
    }
}


// ************************************************************************* //
