/*--------------------------------*- C++ -*----------------------------------*\
  =========                 |
  \\      /  F ield         | OpenFOAM: The Open Source CFD Toolbox
   \\    /   O peration     | Website:  https://openfoam.org
    \\  /    A nd           | Version:  10
     \\/     M anipulation  |
\*---------------------------------------------------------------------------*/
FoamFile
{
    format      ascii;
    class       volScalarField;
    location    "5260";
    object      k;
}
// * * * * * * * * * * * * * * * * * * * * * * * * * * * * * * * * * * * * * //

dimensions      [0 2 -2 0 0 0 0];

internalField   nonuniform List<scalar> 
400
(
6.9137e-06
6.91403e-06
6.91357e-06
6.91353e-06
0.000205934
0.000205944
0.00020593
0.000205929
0.00130728
0.00130734
0.00130725
0.00130725
0.00317398
0.00317403
0.00317385
0.00317385
0.00466109
0.00466108
0.00466084
0.00466085
0.00564043
0.00564036
0.00564009
0.00564012
0.00627982
0.00627971
0.00627943
0.00627948
0.00670335
0.00670322
0.00670294
0.00670301
0.00699005
0.00698992
0.00698966
0.00698975
0.00718802
0.0071879
0.00718768
0.00718777
0.00732668
0.00732657
0.00732638
0.00732649
0.00742436
0.00742426
0.00742412
0.00742423
0.00749261
0.00749253
0.00749242
0.00749255
0.00753904
0.00753898
0.0075389
0.00753903
0.00756853
0.00756847
0.00756842
0.00756856
0.00758461
0.00758455
0.00758452
0.00758465
0.00758985
0.0075898
0.00758978
0.00758992
0.00758623
0.00758618
0.00758618
0.00758632
0.00757524
0.00757519
0.0075752
0.00757533
0.00755805
0.007558
0.00755801
0.00755814
0.00753557
0.00753552
0.00753554
0.00753566
0.00750855
0.00750851
0.00750852
0.00750864
0.00747759
0.00747755
0.00747756
0.00747767
0.00744318
0.00744314
0.00744316
0.00744325
0.00740574
0.0074057
0.00740572
0.0074058
0.00736561
0.00736558
0.00736559
0.00736566
0.00732309
0.00732306
0.00732308
0.00732313
0.00727843
0.00727841
0.00727843
0.00727847
0.00723187
0.00723186
0.00723187
0.0072319
0.00718354
0.00718353
0.00718355
0.00718355
0.00713352
0.00713352
0.00713354
0.00713353
0.00708187
0.00708187
0.0070819
0.00708186
0.00702861
0.00702862
0.00702865
0.0070286
0.00697378
0.00697379
0.00697382
0.00697376
0.00691739
0.00691741
0.00691744
0.00691736
0.00685946
0.00685948
0.00685953
0.00685943
0.00680002
0.00680004
0.00680009
0.00679999
0.00673907
0.0067391
0.00673915
0.00673903
0.00667662
0.00667665
0.00667671
0.00667659
0.00661269
0.00661273
0.00661278
0.00661266
0.00654729
0.00654733
0.00654739
0.00654726
0.00648045
0.00648049
0.00648055
0.00648041
0.00641219
0.00641223
0.0064123
0.00641216
0.00634258
0.00634262
0.00634269
0.00634255
0.00627171
0.00627176
0.00627183
0.00627168
0.00619972
0.00619977
0.00619984
0.00619969
0.00612679
0.00612684
0.00612692
0.00612676
0.00605317
0.00605321
0.00605329
0.00605314
0.00597912
0.00597916
0.00597923
0.00597909
0.00590492
0.00590495
0.00590502
0.0059049
0.00583081
0.00583083
0.00583089
0.0058308
0.00575687
0.00575688
0.00575694
0.00575688
0.00568295
0.00568296
0.00568301
0.00568297
0.00560887
0.00560888
0.00560893
0.00560887
0.00553459
0.0055346
0.00553464
0.00553458
0.00546011
0.00546012
0.00546016
0.00546009
0.00538544
0.00538546
0.00538549
0.00538541
0.0053106
0.00531061
0.00531065
0.00531056
0.00523559
0.0052356
0.00523563
0.00523554
0.00516041
0.00516042
0.00516046
0.00516037
0.00508509
0.0050851
0.00508514
0.00508504
0.00500963
0.00500964
0.00500968
0.00500959
0.00493405
0.00493407
0.00493411
0.00493402
0.00485839
0.00485841
0.00485845
0.00485836
0.00478267
0.00478269
0.00478273
0.00478265
0.00470693
0.00470695
0.00470699
0.00470691
0.0046312
0.00463122
0.00463126
0.00463118
0.00455552
0.00455554
0.00455558
0.00455551
0.00447996
0.00447998
0.00448002
0.00447995
0.00440456
0.00440458
0.00440462
0.00440456
0.00432939
0.0043294
0.00432944
0.00432939
0.00425451
0.00425452
0.00425455
0.0042545
0.00417999
0.00418
0.00418003
0.00417999
0.00410592
0.00410593
0.00410596
0.00410592
0.00403238
0.00403239
0.00403242
0.00403238
0.00395948
0.00395948
0.00395951
0.00395947
0.0038873
0.00388731
0.00388733
0.0038873
0.00381598
0.00381598
0.00381601
0.00381598
0.00374563
0.00374563
0.00374565
0.00374563
0.00367638
0.00367638
0.0036764
0.00367638
0.00360838
0.00360838
0.00360839
0.00360838
0.00354177
0.00354177
0.00354178
0.00354178
0.00347673
0.00347673
0.00347673
0.00347674
0.00341342
0.00341342
0.00341342
0.00341344
0.00335203
0.00335203
0.00335203
0.00335205
0.00329275
0.00329275
0.00329275
0.00329277
0.00323578
0.00323578
0.00323578
0.0032358
0.00318133
0.00318133
0.00318133
0.00318135
0.00312962
0.00312962
0.00312963
0.00312965
0.00308089
0.00308089
0.00308089
0.00308091
0.00303535
0.00303535
0.00303535
0.00303538
0.00299326
0.00299326
0.00299326
0.00299329
0.00295484
0.00295485
0.00295485
0.00295488
0.00292036
0.00292036
0.00292036
0.0029204
0.00289006
0.00289006
0.00289006
0.00289009
0.00286418
0.00286418
0.00286418
0.00286421
0.00284298
0.00284299
0.00284299
0.00284302
0.00282672
0.00282672
0.00282672
0.00282675
0.00281563
0.00281563
0.00281563
0.00281566
0.00280996
0.00280996
0.00280996
0.00281
)
;

boundaryField
{
    inlet
    {
        type            cyclic;
    }
    outlet
    {
        type            cyclic;
    }
    fixedWalls-bottom
    {
        type            kqRWallFunction;
        value           nonuniform List<scalar> 4(6.9137e-06 6.91403e-06 6.91357e-06 6.91353e-06);
    }
    fixedWalls-top
    {
        type            symmetry;
    }
    frontAndBack
    {
        type            empty;
    }
}


// ************************************************************************* //
