/*--------------------------------*- C++ -*----------------------------------*\
  =========                 |
  \\      /  F ield         | OpenFOAM: The Open Source CFD Toolbox
   \\    /   O peration     | Website:  https://openfoam.org
    \\  /    A nd           | Version:  10
     \\/     M anipulation  |
\*---------------------------------------------------------------------------*/
FoamFile
{
    format      ascii;
    class       volScalarField;
    location    "5260";
    object      nut;
}
// * * * * * * * * * * * * * * * * * * * * * * * * * * * * * * * * * * * * * //

dimensions      [0 2 -1 0 0 0 0];

internalField   nonuniform List<scalar> 
400
(
4.69434e-09
4.69456e-09
4.69425e-09
4.69422e-09
7.85603e-07
7.85642e-07
7.85591e-07
7.85588e-07
1.25487e-05
1.25494e-05
1.25486e-05
1.25486e-05
5.16279e-05
5.16299e-05
5.16265e-05
5.16265e-05
0.000108116
0.000108116
0.00010811
0.000108109
0.0001737
0.000173699
0.000173688
0.000173687
0.000247414
0.000247412
0.000247398
0.000247396
0.000327345
0.000327343
0.000327326
0.000327322
0.000411875
0.000411875
0.000411857
0.000411849
0.000499718
0.000499719
0.0004997
0.000499689
0.00058978
0.000589776
0.000589756
0.000589751
0.000680799
0.000680765
0.000680753
0.000680779
0.000770798
0.00077077
0.000770761
0.0007708
0.000861753
0.000861731
0.000861727
0.000861781
0.000953536
0.000953521
0.000953522
0.000953591
0.00104606
0.00104605
0.00104606
0.00104614
0.00113928
0.00113927
0.00113928
0.00113938
0.00123316
0.00123315
0.00123317
0.00123328
0.0013277
0.0013277
0.00132772
0.00132784
0.00142292
0.00142292
0.00142294
0.00142307
0.00151885
0.00151884
0.00151887
0.001519
0.00161551
0.0016155
0.00161553
0.00161567
0.00171294
0.00171294
0.00171297
0.0017131
0.0018112
0.00181119
0.00181123
0.00181134
0.00191032
0.00191032
0.00191036
0.00191045
0.00201035
0.00201035
0.0020104
0.00201045
0.00211132
0.00211133
0.00211139
0.0021114
0.00221327
0.00221329
0.00221334
0.00221331
0.00231621
0.00231624
0.00231628
0.0023162
0.00241729
0.00241732
0.00241732
0.00241723
0.00251694
0.00251697
0.00251697
0.00251688
0.00261589
0.00261593
0.00261593
0.00261586
0.00271461
0.00271465
0.00271467
0.0027146
0.00281335
0.00281338
0.00281341
0.00281335
0.00291221
0.00291223
0.00291226
0.00291221
0.00301121
0.00301122
0.00301125
0.0030112
0.00311028
0.00311029
0.00311032
0.00311027
0.00320938
0.00320939
0.00320942
0.00320937
0.00330846
0.00330846
0.0033085
0.00330844
0.00340753
0.00340755
0.00340759
0.00340753
0.00350678
0.0035068
0.00350686
0.00350678
0.00360655
0.00360659
0.00360666
0.00360655
0.00370749
0.00370755
0.00370762
0.00370748
0.00381059
0.00381067
0.00381072
0.00381055
0.00391723
0.0039173
0.00391731
0.00391714
0.00402911
0.00402913
0.00402907
0.00402897
0.00414812
0.00414804
0.0041479
0.00414799
0.00427593
0.0042757
0.00427551
0.00427596
0.00441331
0.00441295
0.00441278
0.00441373
0.00455906
0.00455868
0.00455862
0.00456007
0.00470846
0.00470824
0.00470833
0.00470991
0.00485128
0.00485129
0.00485143
0.00485208
0.0049696
0.00496941
0.00496925
0.00496688
0.00507694
0.00507669
0.00507652
0.00507412
0.00518237
0.00518204
0.00518188
0.00517945
0.00528542
0.00528502
0.00528486
0.0052824
0.00538567
0.00538523
0.00538507
0.0053826
0.0054828
0.00548234
0.00548219
0.00547971
0.00557656
0.00557613
0.00557597
0.00557351
0.00566682
0.00566641
0.00566625
0.00566384
0.00575347
0.00575311
0.00575294
0.00575062
0.00583649
0.00583621
0.00583602
0.00583381
0.00591581
0.00591576
0.00591551
0.00591344
0.00599173
0.00599176
0.00599145
0.00598954
0.00606418
0.00606429
0.00606388
0.00606215
0.00613321
0.00613329
0.00613292
0.0061313
0.0061988
0.00619887
0.00619855
0.00619703
0.00626099
0.00626107
0.0062608
0.00625938
0.00631982
0.00631989
0.00631971
0.00631837
0.00637534
0.00637542
0.00637526
0.00637404
0.00642758
0.00642767
0.00642751
0.00642642
0.00647657
0.00647665
0.00647651
0.00647555
0.00652233
0.0065224
0.0065223
0.00652148
0.00656496
0.00656503
0.00656497
0.00656428
0.00660453
0.0066046
0.00660458
0.00660405
0.00664114
0.00664126
0.00664124
0.00664087
0.00667494
0.00667509
0.00667507
0.00667488
0.00670612
0.00670621
0.00670619
0.00670621
0.00673469
0.00673477
0.00673481
0.00673504
0.00676088
0.00676108
0.00676107
0.00676148
0.00678503
0.00678508
0.00678524
0.00678572
0.0068071
0.00680717
0.00680743
0.00680796
0.00682736
0.00682763
0.00682769
0.00682841
0.006846
0.00684633
0.00684636
0.00684726
0.0068632
0.00686361
0.00686359
0.00686469
0.00687917
0.00687961
0.00687958
0.00688088
0.00689405
0.00689454
0.00689441
0.00689602
0.00690778
0.00690863
0.00690834
0.00691022
0.00692098
0.00692187
0.00692164
0.00692354
0.0069335
0.0069344
0.00693416
0.00693618
0.00694542
0.00694628
0.00694616
0.00694812
0.00695681
0.00695741
0.00695746
0.00695946
0.00696778
0.00696768
0.00696836
0.00697008
0.00697773
0.00697774
0.00697828
0.00698004
0.00698685
0.00698734
0.00698751
0.00698913
0.00699506
0.00699564
0.00699571
0.00699734
0.00700217
0.00700278
0.00700282
0.00700444
0.00700796
0.00700859
0.00700862
0.00701025
0.00701221
0.00701291
0.00701296
0.00701458
0.0070147
0.00701559
0.00701568
0.00701728
)
;

boundaryField
{
    inlet
    {
        type            cyclic;
    }
    outlet
    {
        type            cyclic;
    }
    fixedWalls-bottom
    {
        type            nutkWallFunction;
        Cmu             0.09;
        kappa           0.41;
        E               9.8;
        value           uniform 0;
    }
    fixedWalls-top
    {
        type            symmetry;
    }
    frontAndBack
    {
        type            empty;
    }
}


// ************************************************************************* //
