/*--------------------------------*- C++ -*----------------------------------*\
  =========                 |
  \\      /  F ield         | OpenFOAM: The Open Source CFD Toolbox
   \\    /   O peration     | Website:  https://openfoam.org
    \\  /    A nd           | Version:  10
     \\/     M anipulation  |
\*---------------------------------------------------------------------------*/
FoamFile
{
    format      ascii;
    class       volVectorField;
    location    "5260";
    object      U;
}
// * * * * * * * * * * * * * * * * * * * * * * * * * * * * * * * * * * * * * //

dimensions      [0 1 -1 0 0 0 0];

internalField   nonuniform List<vector> 
400
(
(0.0654651 -5.68442e-10 0)
(0.0654657 -7.21902e-11 0)
(0.065465 5.67838e-10 0)
(0.0654646 7.22295e-11 0)
(0.196187 -1.02179e-08 0)
(0.196188 7.37905e-10 0)
(0.196186 1.02194e-08 0)
(0.196185 -7.37944e-10 0)
(0.320266 -2.97215e-08 0)
(0.320268 4.18816e-09 0)
(0.320265 2.9722e-08 0)
(0.320263 -4.18801e-09 0)
(0.421082 -5.33359e-08 0)
(0.421084 1.04014e-08 0)
(0.421081 5.33364e-08 0)
(0.421079 -1.04011e-08 0)
(0.495491 -7.53539e-08 0)
(0.495492 1.79968e-08 0)
(0.495489 7.53543e-08 0)
(0.495488 -1.79964e-08 0)
(0.551381 -9.26457e-08 0)
(0.551381 2.56872e-08 0)
(0.55138 9.26461e-08 0)
(0.551379 -2.56868e-08 0)
(0.595037 -1.04416e-07 0)
(0.595037 3.23083e-08 0)
(0.595036 1.04417e-07 0)
(0.595035 -3.23079e-08 0)
(0.630296 -1.10472e-07 0)
(0.630295 3.84628e-08 0)
(0.630294 1.10472e-07 0)
(0.630295 -3.84623e-08 0)
(0.659606 -1.10811e-07 0)
(0.659605 4.54608e-08 0)
(0.659604 1.10811e-07 0)
(0.659606 -4.54603e-08 0)
(0.684567 -1.05325e-07 0)
(0.684565 5.43526e-08 0)
(0.684565 1.05326e-07 0)
(0.684567 -5.43521e-08 0)
(0.706256 -9.44445e-08 0)
(0.706254 6.49169e-08 0)
(0.706254 9.44449e-08 0)
(0.706256 -6.49164e-08 0)
(0.725426 -8.07102e-08 0)
(0.725424 7.50408e-08 0)
(0.725424 8.07106e-08 0)
(0.725427 -7.50403e-08 0)
(0.742631 -6.51509e-08 0)
(0.74263 8.41969e-08 0)
(0.74263 6.51512e-08 0)
(0.742632 -8.41963e-08 0)
(0.75826 -5.0302e-08 0)
(0.758259 9.10819e-08 0)
(0.758259 5.03023e-08 0)
(0.758262 -9.10813e-08 0)
(0.772584 -3.65803e-08 0)
(0.772583 9.65314e-08 0)
(0.772584 3.65806e-08 0)
(0.772586 -9.65308e-08 0)
(0.78581 -2.42939e-08 0)
(0.785809 1.01011e-07 0)
(0.78581 2.42943e-08 0)
(0.785811 -1.01011e-07 0)
(0.7981 -1.37762e-08 0)
(0.798099 1.04558e-07 0)
(0.798099 1.37765e-08 0)
(0.798101 -1.04557e-07 0)
(0.809582 -5.24214e-09 0)
(0.809582 1.07124e-07 0)
(0.809582 5.24245e-09 0)
(0.809583 -1.07123e-07 0)
(0.820361 1.18899e-09 0)
(0.82036 1.08574e-07 0)
(0.820361 -1.18868e-09 0)
(0.820361 -1.08574e-07 0)
(0.83052 5.53628e-09 0)
(0.83052 1.08851e-07 0)
(0.830521 -5.53597e-09 0)
(0.830521 -1.0885e-07 0)
(0.840131 7.89843e-09 0)
(0.840131 1.07899e-07 0)
(0.840131 -7.89813e-09 0)
(0.840131 -1.07898e-07 0)
(0.849251 8.42423e-09 0)
(0.849251 1.05688e-07 0)
(0.849251 -8.42394e-09 0)
(0.849251 -1.05687e-07 0)
(0.857929 7.29864e-09 0)
(0.857929 1.02255e-07 0)
(0.857929 -7.29835e-09 0)
(0.857929 -1.02254e-07 0)
(0.866207 4.71411e-09 0)
(0.866207 9.77274e-08 0)
(0.866208 -4.71382e-09 0)
(0.866207 -9.77268e-08 0)
(0.874121 9.1321e-10 0)
(0.874121 9.23712e-08 0)
(0.874122 -9.12924e-10 0)
(0.874121 -9.23706e-08 0)
(0.881701 -3.80097e-09 0)
(0.881702 8.66085e-08 0)
(0.881702 3.80125e-09 0)
(0.881701 -8.66079e-08 0)
(0.888976 -9.03486e-09 0)
(0.888976 8.09459e-08 0)
(0.888976 9.03514e-09 0)
(0.888975 -8.09453e-08 0)
(0.895966 -1.4295e-08 0)
(0.895967 7.58501e-08 0)
(0.895967 1.42952e-08 0)
(0.895966 -7.58495e-08 0)
(0.902695 -1.89146e-08 0)
(0.902695 7.16051e-08 0)
(0.902695 1.89148e-08 0)
(0.902695 -7.16045e-08 0)
(0.909183 -2.22442e-08 0)
(0.909183 6.79883e-08 0)
(0.909183 2.22445e-08 0)
(0.909183 -6.79877e-08 0)
(0.915452 -2.39716e-08 0)
(0.915452 6.49611e-08 0)
(0.915453 2.39718e-08 0)
(0.915452 -6.49605e-08 0)
(0.921521 -2.40966e-08 0)
(0.921521 6.22887e-08 0)
(0.921522 2.40968e-08 0)
(0.921522 -6.22881e-08 0)
(0.927405 -2.3068e-08 0)
(0.927405 6.00718e-08 0)
(0.927405 2.30683e-08 0)
(0.927405 -6.00712e-08 0)
(0.933114 -2.13944e-08 0)
(0.933114 5.83984e-08 0)
(0.933114 2.13946e-08 0)
(0.933114 -5.83978e-08 0)
(0.938659 -1.94569e-08 0)
(0.938659 5.72265e-08 0)
(0.938659 1.94571e-08 0)
(0.938659 -5.72258e-08 0)
(0.94405 -1.74762e-08 0)
(0.94405 5.64213e-08 0)
(0.944051 1.74764e-08 0)
(0.944051 -5.64207e-08 0)
(0.949296 -1.55507e-08 0)
(0.949296 5.58229e-08 0)
(0.949296 1.55509e-08 0)
(0.949296 -5.58223e-08 0)
(0.954403 -1.37142e-08 0)
(0.954403 5.52974e-08 0)
(0.954403 1.37144e-08 0)
(0.954403 -5.52968e-08 0)
(0.959379 -1.19885e-08 0)
(0.959379 5.47712e-08 0)
(0.959379 1.19887e-08 0)
(0.959379 -5.47706e-08 0)
(0.96423 -1.04116e-08 0)
(0.96423 5.42541e-08 0)
(0.96423 1.04118e-08 0)
(0.96423 -5.42535e-08 0)
(0.968962 -9.02701e-09 0)
(0.968962 5.38532e-08 0)
(0.968962 9.02719e-09 0)
(0.968962 -5.38526e-08 0)
(0.97358 -7.83319e-09 0)
(0.97358 5.37667e-08 0)
(0.97358 7.83337e-09 0)
(0.97358 -5.3766e-08 0)
(0.978088 -6.70547e-09 0)
(0.978088 5.42392e-08 0)
(0.978088 6.70564e-09 0)
(0.978088 -5.42385e-08 0)
(0.982488 -5.3302e-09 0)
(0.982488 5.54512e-08 0)
(0.982488 5.33035e-09 0)
(0.982488 -5.54506e-08 0)
(0.986781 -3.219e-09 0)
(0.986781 5.73362e-08 0)
(0.986781 3.21915e-09 0)
(0.986781 -5.73355e-08 0)
(0.990968 1.09961e-10 0)
(0.990968 5.93582e-08 0)
(0.990968 -1.09791e-10 0)
(0.990968 -5.93576e-08 0)
(0.995046 4.71756e-09 0)
(0.995046 6.03602e-08 0)
(0.995046 -4.71736e-09 0)
(0.995046 -6.03597e-08 0)
(0.999013 9.61246e-09 0)
(0.999013 5.86617e-08 0)
(0.999013 -9.61235e-09 0)
(0.999013 -5.86612e-08 0)
(1.00287 1.20864e-08 0)
(1.00287 5.25941e-08 0)
(1.00287 -1.20865e-08 0)
(1.00287 -5.25933e-08 0)
(1.0066 7.53627e-09 0)
(1.0066 4.14675e-08 0)
(1.0066 -7.53617e-09 0)
(1.0066 -4.14661e-08 0)
(1.01022 -9.01114e-09 0)
(1.01022 2.64216e-08 0)
(1.01022 9.01194e-09 0)
(1.01022 -2.64204e-08 0)
(1.01374 -3.81458e-08 0)
(1.01374 9.89498e-09 0)
(1.01374 3.81458e-08 0)
(1.01373 -9.89611e-09 0)
(1.01716 -6.99942e-08 0)
(1.01716 -7.05522e-09 0)
(1.01716 6.99938e-08 0)
(1.01715 7.05498e-09 0)
(1.0205 -1.01018e-07 0)
(1.0205 -2.23295e-08 0)
(1.0205 1.01019e-07 0)
(1.0205 2.23311e-08 0)
(1.02377 -1.21397e-07 0)
(1.02377 -3.65437e-08 0)
(1.02377 1.21397e-07 0)
(1.02377 3.65446e-08 0)
(1.02697 -1.33571e-07 0)
(1.02697 -4.91829e-08 0)
(1.02697 1.33571e-07 0)
(1.02697 4.91836e-08 0)
(1.0301 -1.39739e-07 0)
(1.0301 -5.99164e-08 0)
(1.0301 1.39739e-07 0)
(1.0301 5.9917e-08 0)
(1.03317 -1.41139e-07 0)
(1.03317 -6.86057e-08 0)
(1.03317 1.41139e-07 0)
(1.03317 6.86064e-08 0)
(1.03618 -1.38645e-07 0)
(1.03618 -7.51913e-08 0)
(1.03618 1.38645e-07 0)
(1.03618 7.5192e-08 0)
(1.03913 -1.33075e-07 0)
(1.03913 -7.96941e-08 0)
(1.03913 1.33075e-07 0)
(1.03913 7.96948e-08 0)
(1.04202 -1.25226e-07 0)
(1.04202 -8.22146e-08 0)
(1.04202 1.25226e-07 0)
(1.04202 8.22153e-08 0)
(1.04485 -1.1585e-07 0)
(1.04485 -8.28633e-08 0)
(1.04485 1.1585e-07 0)
(1.04485 8.2864e-08 0)
(1.04763 -1.05556e-07 0)
(1.04763 -8.1492e-08 0)
(1.04763 1.05556e-07 0)
(1.04763 8.14926e-08 0)
(1.05036 -9.48783e-08 0)
(1.05036 -7.82765e-08 0)
(1.05036 9.48783e-08 0)
(1.05036 7.82772e-08 0)
(1.05304 -8.40477e-08 0)
(1.05304 -7.32841e-08 0)
(1.05304 8.40478e-08 0)
(1.05304 7.32847e-08 0)
(1.05566 -7.33887e-08 0)
(1.05566 -6.6995e-08 0)
(1.05566 7.33887e-08 0)
(1.05566 6.69956e-08 0)
(1.05824 -6.30253e-08 0)
(1.05824 -5.98839e-08 0)
(1.05824 6.30253e-08 0)
(1.05824 5.98845e-08 0)
(1.06076 -5.31862e-08 0)
(1.06076 -5.22347e-08 0)
(1.06076 5.31862e-08 0)
(1.06076 5.22353e-08 0)
(1.06324 -4.40633e-08 0)
(1.06324 -4.41492e-08 0)
(1.06324 4.40633e-08 0)
(1.06324 4.41497e-08 0)
(1.06567 -3.57163e-08 0)
(1.06567 -3.57402e-08 0)
(1.06567 3.57163e-08 0)
(1.06567 3.57408e-08 0)
(1.06804 -2.81394e-08 0)
(1.06804 -2.71314e-08 0)
(1.06804 2.81394e-08 0)
(1.06804 2.71319e-08 0)
(1.07037 -2.12482e-08 0)
(1.07037 -1.8547e-08 0)
(1.07037 2.12483e-08 0)
(1.07037 1.85475e-08 0)
(1.07265 -1.49277e-08 0)
(1.07265 -1.01895e-08 0)
(1.07265 1.49277e-08 0)
(1.07265 1.019e-08 0)
(1.07487 -9.13808e-09 0)
(1.07487 -2.20878e-09 0)
(1.07487 9.13813e-09 0)
(1.07487 2.20927e-09 0)
(1.07705 -3.87717e-09 0)
(1.07705 5.33641e-09 0)
(1.07705 3.87722e-09 0)
(1.07705 -5.33593e-09 0)
(1.07917 9.10238e-10 0)
(1.07917 1.24579e-08 0)
(1.07917 -9.10193e-10 0)
(1.07917 -1.24574e-08 0)
(1.08124 5.28664e-09 0)
(1.08124 1.91026e-08 0)
(1.08124 -5.28659e-09 0)
(1.08124 -1.91022e-08 0)
(1.08326 9.29836e-09 0)
(1.08326 2.50647e-08 0)
(1.08326 -9.29832e-09 0)
(1.08326 -2.50643e-08 0)
(1.08521 1.28216e-08 0)
(1.08521 3.02789e-08 0)
(1.08521 -1.28216e-08 0)
(1.08521 -3.02784e-08 0)
(1.08712 1.5899e-08 0)
(1.08712 3.45849e-08 0)
(1.08712 -1.5899e-08 0)
(1.08712 -3.45844e-08 0)
(1.08896 1.8221e-08 0)
(1.08896 3.79754e-08 0)
(1.08896 -1.8221e-08 0)
(1.08896 -3.7975e-08 0)
(1.09074 1.98943e-08 0)
(1.09074 4.07078e-08 0)
(1.09074 -1.98944e-08 0)
(1.09074 -4.07073e-08 0)
(1.09245 2.11168e-08 0)
(1.09245 4.27135e-08 0)
(1.09245 -2.11169e-08 0)
(1.09245 -4.27131e-08 0)
(1.09411 2.19886e-08 0)
(1.09411 4.41911e-08 0)
(1.09411 -2.19886e-08 0)
(1.09411 -4.41907e-08 0)
(1.09569 2.28207e-08 0)
(1.09569 4.51092e-08 0)
(1.09569 -2.28208e-08 0)
(1.09569 -4.51088e-08 0)
(1.0972 2.35421e-08 0)
(1.0972 4.53969e-08 0)
(1.0972 -2.35422e-08 0)
(1.0972 -4.53965e-08 0)
(1.09863 2.39688e-08 0)
(1.09863 4.49056e-08 0)
(1.09863 -2.39689e-08 0)
(1.09863 -4.49052e-08 0)
(1.09999 2.40387e-08 0)
(1.09999 4.38218e-08 0)
(1.09999 -2.40389e-08 0)
(1.09999 -4.38214e-08 0)
(1.10127 2.36801e-08 0)
(1.10127 4.21441e-08 0)
(1.10127 -2.36803e-08 0)
(1.10127 -4.21437e-08 0)
(1.10247 2.29362e-08 0)
(1.10247 4.01278e-08 0)
(1.10247 -2.29364e-08 0)
(1.10247 -4.01274e-08 0)
(1.10357 2.19555e-08 0)
(1.10357 3.79356e-08 0)
(1.10357 -2.19557e-08 0)
(1.10357 -3.79352e-08 0)
(1.10459 2.06052e-08 0)
(1.10459 3.53707e-08 0)
(1.10459 -2.06054e-08 0)
(1.10459 -3.53703e-08 0)
(1.10551 1.86257e-08 0)
(1.10551 3.23618e-08 0)
(1.10551 -1.8626e-08 0)
(1.10551 -3.23614e-08 0)
(1.10633 1.60141e-08 0)
(1.10633 2.87543e-08 0)
(1.10633 -1.60143e-08 0)
(1.10633 -2.87541e-08 0)
(1.10705 1.30363e-08 0)
(1.10705 2.46722e-08 0)
(1.10705 -1.30365e-08 0)
(1.10705 -2.4672e-08 0)
(1.10766 9.99876e-09 0)
(1.10766 2.02655e-08 0)
(1.10766 -9.99897e-09 0)
(1.10766 -2.02653e-08 0)
(1.10816 7.36441e-09 0)
(1.10816 1.5771e-08 0)
(1.10816 -7.36459e-09 0)
(1.10816 -1.57708e-08 0)
(1.10854 5.06662e-09 0)
(1.10854 1.12395e-08 0)
(1.10854 -5.06677e-09 0)
(1.10854 -1.12393e-08 0)
(1.1088 3.00287e-09 0)
(1.1088 6.70731e-09 0)
(1.1088 -3.00294e-09 0)
(1.1088 -6.7072e-09 0)
(1.10893 1.00551e-09 0)
(1.10893 2.2301e-09 0)
(1.10893 -1.00554e-09 0)
(1.10893 -2.23006e-09 0)
)
;

boundaryField
{
    inlet
    {
        type            cyclic;
    }
    outlet
    {
        type            cyclic;
    }
    fixedWalls-bottom
    {
        type            noSlip;
    }
    fixedWalls-top
    {
        type            symmetry;
    }
    frontAndBack
    {
        type            empty;
    }
}


// ************************************************************************* //
