/*--------------------------------*- C++ -*----------------------------------*\
  =========                 |
  \\      /  F ield         | OpenFOAM: The Open Source CFD Toolbox
   \\    /   O peration     | Website:  https://openfoam.org
    \\  /    A nd           | Version:  10
     \\/     M anipulation  |
\*---------------------------------------------------------------------------*/
FoamFile
{
    format      ascii;
    class       volScalarField;
    location    "2500";
    object      k;
}
// * * * * * * * * * * * * * * * * * * * * * * * * * * * * * * * * * * * * * //

dimensions      [0 2 -2 0 0 0 0];

internalField   nonuniform List<scalar> 
400
(
8.80597e-10
8.80495e-10
8.80509e-10
8.80666e-10
2.64209e-08
2.64179e-08
2.64183e-08
2.6423e-08
1.87097e-07
1.87075e-07
1.87078e-07
1.87112e-07
6.80221e-07
6.80143e-07
6.80153e-07
6.80278e-07
1.76016e-06
1.75996e-06
1.75998e-06
1.76031e-06
3.72785e-06
3.72742e-06
3.72748e-06
3.72817e-06
6.92804e-06
6.92725e-06
6.92735e-06
6.92863e-06
1.17487e-05
1.17473e-05
1.17475e-05
1.17497e-05
1.86207e-05
1.86186e-05
1.86188e-05
1.86223e-05
2.80175e-05
2.80143e-05
2.80148e-05
2.802e-05
4.04537e-05
4.04491e-05
4.04497e-05
4.04574e-05
5.64819e-05
5.64755e-05
5.64764e-05
5.64872e-05
7.6688e-05
7.66794e-05
7.66807e-05
7.66955e-05
0.000101684
0.000101673
0.000101674
0.000101694
0.000132097
0.000132082
0.000132085
0.000132111
0.000168555
0.000168536
0.000168539
0.000168573
0.000211668
0.000211645
0.000211649
0.000211692
0.000262009
0.000261981
0.000261986
0.000262039
0.000320083
0.000320049
0.000320056
0.000320122
0.000386304
0.000386264
0.000386273
0.000386354
0.000460963
0.000460916
0.000460927
0.000461024
0.000544199
0.000544145
0.000544159
0.000544274
0.000635977
0.000635915
0.000635932
0.000636068
0.000736067
0.000735998
0.000736017
0.000736176
0.000844038
0.000843961
0.000843984
0.000844166
0.000959257
0.000959172
0.000959197
0.000959404
0.0010809
0.00108081
0.00108084
0.00108107
0.00120797
0.00120788
0.00120791
0.00120816
0.00133936
0.00133926
0.00133929
0.00133957
0.00147384
0.00147373
0.00147376
0.00147406
0.00161013
0.00161001
0.00161005
0.00161036
0.00174693
0.00174682
0.00174685
0.00174717
0.00188304
0.00188292
0.00188295
0.00188327
0.00201758
0.00201746
0.00201749
0.00201782
0.00214991
0.00214979
0.00214981
0.00215015
0.00227936
0.00227925
0.00227927
0.00227961
0.00240532
0.00240521
0.00240523
0.00240557
0.00252723
0.00252712
0.00252714
0.00252748
0.0026446
0.00264449
0.00264451
0.00264485
0.00275699
0.00275689
0.0027569
0.00275724
0.00286402
0.00286393
0.00286394
0.00286427
0.0029654
0.00296531
0.00296532
0.00296564
0.00306086
0.00306077
0.00306078
0.0030611
0.00315021
0.00315014
0.00315014
0.00315045
0.00323332
0.00323325
0.00323325
0.00323355
0.00331008
0.00331002
0.00331002
0.00331031
0.00338044
0.00338038
0.00338038
0.00338066
0.00344437
0.00344431
0.00344431
0.00344458
0.00350186
0.00350181
0.00350181
0.00350206
0.00355292
0.00355287
0.00355288
0.00355312
0.00359756
0.00359751
0.00359752
0.00359775
0.00363576
0.00363571
0.00363572
0.00363594
0.00366748
0.00366744
0.00366744
0.00366766
0.00369265
0.00369262
0.00369262
0.00369284
0.00371128
0.00371125
0.00371125
0.00371146
0.00372376
0.00372373
0.00372373
0.00372393
0.00373037
0.00373034
0.00373034
0.00373053
0.00373138
0.00373136
0.00373136
0.00373153
0.00372706
0.00372704
0.00372704
0.0037272
0.00371765
0.00371763
0.00371763
0.00371777
0.00370338
0.00370335
0.00370336
0.00370348
0.00368444
0.00368442
0.00368442
0.00368453
0.00366103
0.00366101
0.00366102
0.00366111
0.00363331
0.0036333
0.0036333
0.00363338
0.00360143
0.00360141
0.00360141
0.00360148
0.0035655
0.00356549
0.00356549
0.00356555
0.00352565
0.00352564
0.00352564
0.00352568
0.00348196
0.00348196
0.00348196
0.00348199
0.00343454
0.00343454
0.00343454
0.00343457
0.00338346
0.00338347
0.00338347
0.00338348
0.00332881
0.00332882
0.00332882
0.00332882
0.00327066
0.00327068
0.00327067
0.00327067
0.00320909
0.00320911
0.00320911
0.00320909
0.00314418
0.00314421
0.0031442
0.00314417
0.003076
0.00307603
0.00307602
0.00307599
0.00300463
0.00300466
0.00300464
0.00300459
0.00293044
0.00293046
0.00293044
0.00293037
0.00285386
0.00285388
0.00285386
0.00285376
0.00277484
0.00277487
0.00277484
0.00277475
0.00269322
0.00269325
0.00269322
0.00269317
0.00260902
0.00260905
0.00260903
0.002609
0.00252242
0.00252244
0.00252242
0.00252243
0.0024337
0.00243371
0.0024337
0.00243374
0.00234325
0.00234326
0.00234325
0.0023433
0.00225155
0.00225155
0.00225154
0.00225161
0.00215915
0.00215915
0.00215913
0.00215922
0.00206669
0.00206667
0.00206665
0.00206676
0.00197486
0.00197484
0.00197482
0.00197493
0.00188443
0.00188441
0.00188439
0.0018845
0.00179624
0.00179622
0.00179619
0.00179631
0.00171118
0.00171115
0.00171113
0.00171124
0.00163019
0.00163014
0.00163013
0.00163024
0.00155423
0.00155416
0.00155417
0.00155428
0.00148433
0.00148423
0.00148425
0.00148437
0.00142148
0.00142137
0.00142139
0.00142151
0.00136665
0.00136654
0.00136657
0.00136669
0.00132061
0.00132049
0.00132051
0.00132064
0.00128407
0.00128396
0.00128398
0.00128411
0.00125862
0.0012585
0.00125852
0.00125865
0.00124555
0.00124545
0.00124546
0.00124559
)
;

boundaryField
{
    inlet
    {
        type            cyclic;
    }
    outlet
    {
        type            cyclic;
    }
    fixedWalls-bottom
    {
        type            kqRWallFunction;
        value           nonuniform List<scalar> 4(8.80597e-10 8.80495e-10 8.80509e-10 8.80666e-10);
    }
    fixedWalls-top
    {
        type            symmetry;
    }
    frontAndBack
    {
        type            empty;
    }
}


// ************************************************************************* //
