/*--------------------------------*- C++ -*----------------------------------*\
  =========                 |
  \\      /  F ield         | OpenFOAM: The Open Source CFD Toolbox
   \\    /   O peration     | Website:  https://openfoam.org
    \\  /    A nd           | Version:  10
     \\/     M anipulation  |
\*---------------------------------------------------------------------------*/
FoamFile
{
    format      ascii;
    class       volScalarField;
    location    "2500";
    object      omega;
}
// * * * * * * * * * * * * * * * * * * * * * * * * * * * * * * * * * * * * * //

dimensions      [0 0 -1 0 0 0 0];

internalField   nonuniform List<scalar> 
400
(
31268.4
31268.4
31268.4
31268.4
5347.56
5347.56
5347.55
5347.59
1798.99
1798.99
1798.99
1798.99
845.075
845.075
845.075
845.076
477.994
477.995
477.995
477.995
303.248
303.249
303.248
303.249
207.771
207.771
207.771
207.772
150.38
150.38
150.38
150.381
113.399
113.399
113.399
113.399
88.2807
88.2809
88.2808
88.2814
70.5054
70.5056
70.5054
70.5059
57.5072
57.5074
57.5072
57.5076
47.7456
47.7457
47.7456
47.7459
40.2516
40.2517
40.2516
40.2518
34.3919
34.392
34.3918
34.392
29.7386
29.7387
29.7384
29.7385
25.9943
25.9943
25.9941
25.9941
22.9473
22.9474
22.9471
22.9469
20.4437
20.4437
20.4433
20.4431
18.369
18.369
18.3686
18.3683
16.6372
16.6372
16.6367
16.6363
15.1822
15.1822
15.1816
15.1811
13.9527
13.9526
13.952
13.9514
12.9084
12.9083
12.9076
12.9068
12.0171
12.0169
12.0162
12.0153
11.253
11.2528
11.2521
11.251
10.5952
10.595
10.5943
10.5931
10.0266
10.0263
10.0256
10.0243
9.53296
9.5327
9.53196
9.5305
9.10263
9.10236
9.10163
9.10006
8.72581
8.72554
8.72482
8.72315
8.3943
8.39404
8.39332
8.39157
8.10119
8.10094
8.10023
8.09842
7.84063
7.84039
7.8397
7.83784
7.60769
7.60746
7.60679
7.6049
7.39814
7.39793
7.39728
7.39537
7.20842
7.20822
7.20759
7.20569
7.03547
7.03529
7.03469
7.0328
6.8767
6.87653
6.87595
6.87409
6.72988
6.72971
6.72918
6.72735
6.59311
6.59296
6.59245
6.59068
6.46479
6.46464
6.46417
6.46245
6.34351
6.34337
6.34294
6.34128
6.2281
6.22797
6.22758
6.22598
6.11756
6.11743
6.11707
6.11555
6.011
6.01088
6.01056
6.00911
5.9077
5.90759
5.9073
5.90592
5.80702
5.80691
5.80665
5.80534
5.7084
5.7083
5.70807
5.70683
5.61139
5.61128
5.61107
5.6099
5.51557
5.51542
5.51524
5.51414
5.42045
5.42039
5.42021
5.41918
5.32587
5.32581
5.32564
5.3247
5.23147
5.2314
5.23125
5.23038
5.13696
5.13687
5.13676
5.13596
5.04212
5.04197
5.04189
5.04117
4.9466
4.94647
4.94641
4.94576
4.85025
4.85013
4.85008
4.8495
4.75284
4.75275
4.7527
4.7522
4.65423
4.65415
4.65412
4.65367
4.5543
4.55423
4.55421
4.55383
4.453
4.45295
4.45292
4.4526
4.35034
4.3503
4.35028
4.35002
4.24639
4.24636
4.24633
4.24613
4.14124
4.14125
4.1412
4.14104
4.03506
4.03506
4.03502
4.0349
3.92797
3.92795
3.92794
3.92783
3.82009
3.82007
3.82007
3.81997
3.71154
3.71152
3.71152
3.71144
3.60239
3.60237
3.60237
3.6023
3.49265
3.49264
3.49265
3.49258
3.38232
3.3823
3.38233
3.38227
3.2713
3.27128
3.27133
3.27127
3.15944
3.15943
3.15952
3.15948
3.04653
3.04654
3.0467
3.04669
2.93228
2.93234
2.9326
2.93268
2.81628
2.81651
2.81686
2.81719
2.69792
2.69865
2.69895
2.70001
2.58012
2.58024
2.58079
2.58129
2.46629
2.4662
2.46656
2.46665
2.35696
2.35681
2.35696
2.35677
2.25185
2.25165
2.25172
2.25129
2.15062
2.15032
2.15038
2.14977
2.05289
2.05253
2.05256
2.05181
1.95842
1.95799
1.95802
1.95714
1.86706
1.86658
1.86662
1.86561
1.77881
1.77828
1.77834
1.77721
1.69376
1.69318
1.69325
1.69202
1.61211
1.61149
1.61156
1.61025
1.53415
1.53351
1.53354
1.53218
1.46025
1.45968
1.45951
1.45821
1.39087
1.39057
1.38992
1.3888
1.3265
1.32705
1.32533
1.32447
1.26796
1.26862
1.26666
1.26586
1.21581
1.21652
1.21442
1.2136
1.17073
1.17149
1.1693
1.16843
1.13347
1.13424
1.13203
1.13106
1.10477
1.10553
1.10333
1.10222
1.08532
1.086
1.08388
1.08253
1.0748
1.07517
1.07326
1.07156
)
;

boundaryField
{
    inlet
    {
        type            cyclic;
    }
    outlet
    {
        type            cyclic;
    }
    fixedWalls-bottom
    {
        beta1           0.075;
        blended         0;
        type            omegaWallFunction;
        value           uniform 31268.4;
    }
    fixedWalls-top
    {
        type            symmetry;
    }
    frontAndBack
    {
        type            empty;
    }
}


// ************************************************************************* //
