/*--------------------------------*- C++ -*----------------------------------*\
  =========                 |
  \\      /  F ield         | OpenFOAM: The Open Source CFD Toolbox
   \\    /   O peration     | Website:  https://openfoam.org
    \\  /    A nd           | Version:  10
     \\/     M anipulation  |
\*---------------------------------------------------------------------------*/
FoamFile
{
    format      ascii;
    class       surfaceScalarField;
    location    "2500";
    object      phi;
}
// * * * * * * * * * * * * * * * * * * * * * * * * * * * * * * * * * * * * * //

dimensions      [0 3 -1 0 0 0 0];

internalField   nonuniform List<scalar> 
696
(
7.36145e-05
-2.40883e-09
7.36142e-05
3.69383e-10
7.3614e-05
1.90971e-10
-3.65808e-10
0.000224314
-2.98353e-09
0.000224313
1.40179e-09
0.000224313
7.33729e-10
-1.3928e-09
0.000380665
-3.74001e-09
0.000380663
2.99431e-09
0.000380662
1.53077e-09
-2.97956e-09
0.000542816
-4.79657e-09
0.000542814
5.11259e-09
0.000542813
2.5571e-09
-5.09273e-09
0.00071092
-5.96503e-09
0.000710918
7.70593e-09
0.000710917
3.7667e-09
-7.68059e-09
0.000885134
-7.36141e-09
0.000885131
1.07457e-08
0.00088513
5.13742e-09
-1.07156e-08
0.00106561
-8.7911e-09
0.00106561
1.41745e-08
0.00106561
6.60957e-09
-1.41391e-08
0.00125252
-1.03574e-08
0.00125252
1.79651e-08
0.00125252
8.15476e-09
-1.79254e-08
0.00144602
-1.18552e-08
0.00144601
2.20544e-08
0.00144601
9.69712e-09
-2.20095e-08
0.00164626
-1.33742e-08
0.00164626
2.64176e-08
0.00164626
1.11993e-08
-2.63687e-08
0.00185342
-1.46976e-08
0.00185341
3.0988e-08
0.00185341
1.25681e-08
-3.0934e-08
0.00206765
-1.58999e-08
0.00206764
3.57456e-08
0.00206764
1.37572e-08
-3.56878e-08
0.00228911
-1.67522e-08
0.0022891
4.06214e-08
0.0022891
1.46562e-08
-4.05586e-08
0.00251794
-1.73155e-08
0.00251794
4.55992e-08
0.00251794
1.52095e-08
-4.55331e-08
0.0027543
-1.73505e-08
0.0027543
5.06078e-08
0.0027543
1.52914e-08
-5.05369e-08
0.00299832
-1.69076e-08
0.00299832
5.5634e-08
0.00299832
1.48412e-08
-5.556e-08
0.00325011
-1.5743e-08
0.00325011
6.0602e-08
0.00325011
1.37239e-08
-6.05234e-08
0.00350978
-1.39057e-08
0.00350978
6.54983e-08
0.00350978
1.1882e-08
-6.5417e-08
0.00377741
-1.1161e-08
0.0037774
7.02401e-08
0.0037774
9.18437e-09
-7.01543e-08
0.00405305
-7.5741e-09
0.00405305
7.48113e-08
0.00405305
5.595e-09
-7.47232e-08
0.00433676
-2.94296e-09
0.00433675
7.91218e-08
0.00433676
1.01113e-09
-7.90295e-08
0.00462853
2.61911e-09
0.00462852
8.31542e-08
0.00462853
-4.55131e-09
-8.30601e-08
0.00492835
9.24339e-09
0.00492835
8.68164e-08
0.00492836
-1.1129e-08
-8.67184e-08
0.0052362
1.67262e-08
0.0052362
9.00981e-08
0.00523621
-1.86104e-08
-8.99987e-08
0.00555203
2.50816e-08
0.00555202
9.29171e-08
0.00555203
-2.69193e-08
-9.28141e-08
0.00587576
3.39689e-08
0.00587575
9.52837e-08
0.00587576
-3.58035e-08
-9.51798e-08
0.00620732
4.32437e-08
0.00620732
9.71419e-08
0.00620733
-4.50326e-08
-9.70347e-08
0.00654666
5.23985e-08
0.00654665
9.85388e-08
0.00654666
-5.4183e-08
-9.84312e-08
0.00689369
6.11154e-08
0.00689369
9.94652e-08
0.0068937
-6.28546e-08
-9.93547e-08
0.00724837
6.87228e-08
0.00724837
1.00038e-07
0.00724838
-7.04562e-08
-9.99278e-08
0.00761066
7.47514e-08
0.00761066
1.00349e-07
0.00761067
-7.64405e-08
-1.00236e-07
0.00798055
7.84099e-08
0.00798055
1.0065e-07
0.00798055
-8.0092e-08
-1.00538e-07
0.00835818
8.12171e-08
0.00835818
1.00396e-07
0.00835818
-8.28555e-08
-1.00281e-07
0.0087438
8.48294e-08
0.0087438
9.9066e-08
0.0087438
-8.64596e-08
-9.89521e-08
0.00913757
8.93901e-08
0.00913757
9.67894e-08
0.00913758
-9.09774e-08
-9.66737e-08
0.00953954
9.47057e-08
0.00953954
9.37881e-08
0.00953955
-9.62838e-08
-9.36737e-08
0.00994978
1.00816e-07
0.00994978
9.01856e-08
0.00994979
-1.02351e-07
-9.00698e-08
0.0103683
1.07487e-07
0.0103683
8.61743e-08
0.0103684
-1.09012e-07
-8.60603e-08
0.0107953
1.14728e-07
0.0107953
8.18497e-08
0.0107953
-1.16212e-07
-8.17346e-08
0.0112307
1.22295e-07
0.0112308
7.73766e-08
0.0112308
-1.23768e-07
-7.72636e-08
0.0116747
1.30191e-07
0.0116747
7.28312e-08
0.0116748
-1.31623e-07
-7.27174e-08
0.0121274
1.38181e-07
0.0121274
6.83623e-08
0.0121274
-1.39601e-07
-6.82511e-08
0.0125887
1.46288e-07
0.0125888
6.40415e-08
0.0125888
-1.47668e-07
-6.39298e-08
0.0130589
1.54319e-07
0.0130589
6.00154e-08
0.0130589
-1.55686e-07
-5.99066e-08
0.013538
1.62347e-07
0.013538
5.63641e-08
0.013538
-1.63675e-07
-5.62551e-08
0.0140261
1.70267e-07
0.0140261
5.32413e-08
0.0140261
-1.71581e-07
-5.31355e-08
0.0145233
1.78267e-07
0.0145233
5.07356e-08
0.0145233
-1.79542e-07
-5.06298e-08
0.0150296
1.8641e-07
0.0150296
4.8989e-08
0.0150296
-1.87671e-07
-4.88867e-08
0.015545
1.95103e-07
0.015545
4.80536e-08
0.0155451
-1.96327e-07
-4.79516e-08
0.0160698
2.047e-07
0.0160698
4.79679e-08
0.0160698
-2.05909e-07
-4.78696e-08
0.0166037
2.15952e-07
0.0166037
4.85741e-08
0.0166037
-2.17124e-07
-4.84764e-08
0.0171469
2.29609e-07
0.0171469
4.95621e-08
0.0171469
-2.30766e-07
-4.94682e-08
0.0176992
2.46496e-07
0.0176992
5.03072e-08
0.0176992
-2.47615e-07
-5.0214e-08
0.0182608
2.62501e-07
0.0182608
5.08812e-08
0.0182608
-2.63605e-07
-5.0792e-08
0.0188322
2.73905e-07
0.0188322
5.13879e-08
0.0188322
-2.74973e-07
-5.12995e-08
0.0194137
2.8163e-07
0.0194137
5.14914e-08
0.0194137
-2.82682e-07
-5.1407e-08
0.0200054
2.86672e-07
0.0200054
5.10254e-08
0.0200054
-2.87688e-07
-5.09419e-08
0.0206074
2.89677e-07
0.0206074
4.98256e-08
0.0206074
-2.90676e-07
-4.97461e-08
0.0212197
2.91342e-07
0.0212197
4.78518e-08
0.0212197
-2.92307e-07
-4.77732e-08
0.0218423
2.92078e-07
0.0218423
4.51815e-08
0.0218423
-2.93026e-07
-4.5107e-08
0.0224752
2.92338e-07
0.0224752
4.19547e-08
0.0224752
-2.93252e-07
-4.18811e-08
0.0231185
2.92342e-07
0.0231185
3.83397e-08
0.0231185
-2.93238e-07
-3.827e-08
0.023772
2.92347e-07
0.023772
3.45186e-08
0.023772
-2.93209e-07
-3.44499e-08
0.0244358
2.92368e-07
0.0244358
3.06397e-08
0.0244358
-2.93213e-07
-3.05746e-08
0.0251097
2.92388e-07
0.0251097
2.67768e-08
0.0251097
-2.932e-07
-2.67126e-08
0.0257936
2.92242e-07
0.0257936
2.29424e-08
0.0257936
-2.93036e-07
-2.28817e-08
0.0264875
2.91963e-07
0.0264875
1.91375e-08
0.0264875
-2.92725e-07
-1.90776e-08
0.0271911
2.91325e-07
0.0271911
1.52611e-08
0.0271911
-2.92068e-07
-1.52043e-08
0.0279045
2.90011e-07
0.0279045
1.12432e-08
0.0279045
-2.90723e-07
-1.11871e-08
0.0286273
2.87489e-07
0.0286273
6.98519e-09
0.0286273
-2.88183e-07
-6.93193e-09
0.0293594
2.83185e-07
0.0293594
2.51865e-09
0.0293594
-2.83849e-07
-2.46586e-09
0.0301006
2.76316e-07
0.0301006
-2.03499e-09
0.0301006
-2.7696e-07
2.08527e-09
0.0308506
2.66116e-07
0.0308506
-6.26494e-09
0.0308506
-2.66731e-07
6.31498e-09
0.0316091
2.51878e-07
0.0316091
-9.49301e-09
0.0316091
-2.52473e-07
9.54093e-09
0.0323759
2.33532e-07
0.0323759
-1.07513e-08
0.0323758
-2.34099e-07
1.07991e-08
0.0331504
2.12316e-07
0.0331504
-9.20688e-09
0.0331504
-2.12863e-07
9.25297e-09
0.0339325
1.92494e-07
0.0339325
-5.01859e-09
0.0339324
-1.93013e-07
5.06476e-09
0.0347214
1.8413e-07
0.0347214
-1.74805e-09
0.0347214
-1.84629e-07
1.7929e-09
0.0355168
1.92119e-07
0.0355168
2.74006e-10
0.0355168
-1.9259e-07
-2.28859e-10
0.0363181
2.09379e-07
0.0363181
5.23726e-09
0.0363182
-2.09831e-07
-5.19287e-09
0.0371252
2.27474e-07
0.0371251
1.46111e-08
0.0371252
-2.27899e-07
-1.4566e-08
0.0379374
2.41384e-07
0.0379374
2.69768e-08
0.0379374
-2.41789e-07
-2.69319e-08
0.0387546
2.4979e-07
0.0387546
4.03551e-08
0.0387546
-2.50169e-07
-4.03093e-08
0.0395761
2.52961e-07
0.0395761
5.35142e-08
0.0395761
-2.5332e-07
-5.34681e-08
0.0404014
2.51741e-07
0.0404014
6.56593e-08
0.0404014
-2.52074e-07
-6.56122e-08
0.04123
2.47061e-07
0.04123
7.64166e-08
0.04123
-2.47373e-07
-7.63691e-08
0.0420611
2.40101e-07
0.042061
8.57261e-08
0.042061
-2.40388e-07
-8.56776e-08
0.0428939
2.32063e-07
0.0428939
9.36554e-08
0.0428939
-2.32327e-07
-9.36068e-08
0.0437277
2.24449e-07
0.0437277
1.00286e-07
0.0437277
-2.24688e-07
-1.00237e-07
0.0445614
2.18761e-07
0.0445614
1.05641e-07
0.0445614
-2.18978e-07
-1.05593e-07
0.0453941
2.16315e-07
0.0453941
1.0989e-07
0.0453941
-2.16507e-07
-1.09842e-07
0.0462247
2.16656e-07
0.0462247
1.13051e-07
0.0462247
-2.16825e-07
-1.13005e-07
0.0470518
2.12555e-07
0.0470518
1.14194e-07
0.0470518
-2.12699e-07
-1.1415e-07
0.0478743
1.98861e-07
0.0478743
1.11791e-07
0.0478743
-1.98982e-07
-1.11751e-07
0.0486906
1.77389e-07
0.0486906
1.04929e-07
0.0486906
-1.77486e-07
-1.04894e-07
0.0494991
1.49828e-07
0.0494992
9.30996e-08
0.0494991
-1.49902e-07
-9.30704e-08
0.0502983
1.17602e-07
0.0502984
7.62989e-08
0.0502983
-1.17652e-07
-7.62766e-08
0.0510864
8.16086e-08
0.0510864
5.47913e-08
0.0510864
-8.1633e-08
-5.47764e-08
0.0518613
4.2421e-08
0.0518613
2.93137e-08
0.0518613
-4.24236e-08
-2.93111e-08
0.052621
0.052621
0.0526209
)
;

boundaryField
{
    inlet
    {
        type            cyclic;
        value           nonuniform List<scalar> 
100
(
-0.0526209
-0.0518612
-0.0510863
-0.0502983
-0.0494991
-0.0486905
-0.0478743
-0.0470518
-0.0462247
-0.0453941
-0.0445614
-0.0437277
-0.0428939
-0.042061
-0.04123
-0.0404014
-0.0395761
-0.0387546
-0.0379375
-0.0371252
-0.0363182
-0.0355168
-0.0347214
-0.0339324
-0.0331504
-0.0323758
-0.0316091
-0.0308506
-0.0301006
-0.0293594
-0.0286273
-0.0279045
-0.0271911
-0.0264875
-0.0257936
-0.0251097
-0.0244358
-0.023772
-0.0231185
-0.0224752
-0.0218423
-0.0212197
-0.0206074
-0.0200054
-0.0194137
-0.0188322
-0.0182608
-0.0176992
-0.0171469
-0.0166037
-0.0160698
-0.0155451
-0.0150296
-0.0145233
-0.0140261
-0.013538
-0.0130589
-0.0125888
-0.0121274
-0.0116748
-0.0112308
-0.0107953
-0.0103683
-0.00994978
-0.00953955
-0.00913757
-0.0087438
-0.00835818
-0.00798055
-0.00761067
-0.00724838
-0.0068937
-0.00654666
-0.00620733
-0.00587576
-0.00555203
-0.00523621
-0.00492836
-0.00462853
-0.00433676
-0.00405306
-0.00377741
-0.00350978
-0.00325011
-0.00299832
-0.0027543
-0.00251794
-0.00228911
-0.00206765
-0.00185342
-0.00164626
-0.00144602
-0.00125252
-0.00106561
-0.000885133
-0.000710919
-0.000542815
-0.000380664
-0.000224314
-7.36144e-05
)
;
    }
    outlet
    {
        type            cyclic;
        value           nonuniform List<scalar> 
100
(
0.0526209
0.0518612
0.0510863
0.0502983
0.0494991
0.0486905
0.0478743
0.0470518
0.0462247
0.0453941
0.0445614
0.0437277
0.0428939
0.042061
0.04123
0.0404014
0.0395761
0.0387546
0.0379375
0.0371252
0.0363182
0.0355168
0.0347214
0.0339324
0.0331504
0.0323758
0.0316091
0.0308506
0.0301006
0.0293594
0.0286273
0.0279045
0.0271911
0.0264875
0.0257936
0.0251097
0.0244358
0.023772
0.0231185
0.0224752
0.0218423
0.0212197
0.0206074
0.0200054
0.0194137
0.0188322
0.0182608
0.0176992
0.0171469
0.0166037
0.0160698
0.0155451
0.0150296
0.0145233
0.0140261
0.013538
0.0130589
0.0125888
0.0121274
0.0116748
0.0112308
0.0107953
0.0103683
0.00994978
0.00953955
0.00913757
0.0087438
0.00835818
0.00798055
0.00761067
0.00724838
0.0068937
0.00654666
0.00620733
0.00587576
0.00555203
0.00523621
0.00492836
0.00462853
0.00433676
0.00405306
0.00377741
0.00350978
0.00325011
0.00299832
0.0027543
0.00251794
0.00228911
0.00206765
0.00185342
0.00164626
0.00144602
0.00125252
0.00106561
0.000885133
0.000710919
0.000542815
0.000380664
0.000224314
7.36144e-05
)
;
    }
    fixedWalls-bottom
    {
        type            calculated;
        value           uniform 0;
    }
    fixedWalls-top
    {
        type            symmetry;
        value           uniform 0;
    }
    frontAndBack
    {
        type            empty;
        value           nonuniform List<scalar> 0();
    }
}


// ************************************************************************* //
