/*--------------------------------*- C++ -*----------------------------------*\
  =========                 |
  \\      /  F ield         | OpenFOAM: The Open Source CFD Toolbox
   \\    /   O peration     | Website:  https://openfoam.org
    \\  /    A nd           | Version:  10
     \\/     M anipulation  |
\*---------------------------------------------------------------------------*/
FoamFile
{
    format      ascii;
    class       volSymmTensorField;
    location    "2500";
    object      R;
}
// * * * * * * * * * * * * * * * * * * * * * * * * * * * * * * * * * * * * * //

dimensions      [0 2 -2 0 0 0 0];

internalField   nonuniform List<symmTensor> 
400
(
(5.87065e-10 -9.71675e-14 -0 5.87065e-10 -0 5.87065e-10)
(5.86997e-10 -9.71562e-14 -0 5.86997e-10 -0 5.86997e-10)
(5.87006e-10 -9.71569e-14 -0 5.87006e-10 -0 5.87006e-10)
(5.87111e-10 -9.71746e-14 -0 5.87111e-10 -0 5.87111e-10)
(1.7614e-08 -1.69672e-11 -0 1.7614e-08 -0 1.7614e-08)
(1.76119e-08 -1.69652e-11 -0 1.76119e-08 -0 1.76119e-08)
(1.76122e-08 -1.69653e-11 -0 1.76122e-08 -0 1.76122e-08)
(1.76153e-08 -1.69683e-11 -0 1.76153e-08 -0 1.76153e-08)
(1.24731e-07 -3.55455e-10 -0 1.24731e-07 -0 1.24731e-07)
(1.24717e-07 -3.55414e-10 -0 1.24717e-07 -0 1.24717e-07)
(1.24718e-07 -3.55417e-10 -0 1.24718e-07 -0 1.24718e-07)
(1.24741e-07 -3.55483e-10 -0 1.24741e-07 -0 1.24741e-07)
(4.53481e-07 -2.73778e-09 -0 4.53481e-07 -0 4.53481e-07)
(4.53429e-07 -2.73747e-09 -0 4.53429e-07 -0 4.53429e-07)
(4.53435e-07 -2.73749e-09 -0 4.53435e-07 -0 4.53435e-07)
(4.53518e-07 -2.738e-09 -0 4.53518e-07 -0 4.53518e-07)
(1.17344e-06 -1.24633e-08 -0 1.17344e-06 -0 1.17344e-06)
(1.17331e-06 -1.24619e-08 -0 1.17331e-06 -0 1.17331e-06)
(1.17332e-06 -1.2462e-08 -0 1.17332e-06 -0 1.17332e-06)
(1.17354e-06 -1.24643e-08 -0 1.17354e-06 -0 1.17354e-06)
(2.48524e-06 -4.13984e-08 -0 2.48524e-06 -0 2.48524e-06)
(2.48495e-06 -4.13937e-08 -0 2.48495e-06 -0 2.48495e-06)
(2.48499e-06 -4.13941e-08 -0 2.48499e-06 -0 2.48499e-06)
(2.48544e-06 -4.14017e-08 -0 2.48544e-06 -0 2.48544e-06)
(4.6187e-06 -1.11719e-07 -0 4.6187e-06 -0 4.6187e-06)
(4.61817e-06 -1.11706e-07 -0 4.61817e-06 -0 4.61817e-06)
(4.61823e-06 -1.11708e-07 -0 4.61823e-06 -0 4.61823e-06)
(4.61909e-06 -1.11728e-07 -0 4.61909e-06 -0 4.61909e-06)
(7.83245e-06 -2.60396e-07 -0 7.83245e-06 -0 7.83245e-06)
(7.83155e-06 -2.60366e-07 -0 7.83155e-06 -0 7.83155e-06)
(7.83166e-06 -2.60369e-07 -0 7.83166e-06 -0 7.83166e-06)
(7.83312e-06 -2.60417e-07 -0 7.83312e-06 -0 7.83312e-06)
(1.24138e-05 -5.44388e-07 -0 1.24138e-05 -0 1.24138e-05)
(1.24124e-05 -5.44325e-07 -0 1.24124e-05 -0 1.24124e-05)
(1.24126e-05 -5.44332e-07 -0 1.24126e-05 -0 1.24126e-05)
(1.24149e-05 -5.44433e-07 -0 1.24149e-05 -0 1.24149e-05)
(1.86783e-05 -1.04644e-06 -0 1.86783e-05 -0 1.86783e-05)
(1.86762e-05 -1.04632e-06 -0 1.86762e-05 -0 1.86762e-05)
(1.86765e-05 -1.04633e-06 -0 1.86765e-05 -0 1.86765e-05)
(1.868e-05 -1.04653e-06 -0 1.868e-05 -0 1.868e-05)
(2.69691e-05 -1.88126e-06 -0 2.69691e-05 -0 2.69691e-05)
(2.69661e-05 -1.88104e-06 -0 2.69661e-05 -0 2.69661e-05)
(2.69665e-05 -1.88107e-06 -0 2.69665e-05 -0 2.69665e-05)
(2.69716e-05 -1.88142e-06 -0 2.69716e-05 -0 2.69716e-05)
(3.76546e-05 -3.20174e-06 -0 3.76546e-05 -0 3.76546e-05)
(3.76503e-05 -3.20137e-06 -0 3.76503e-05 -0 3.76503e-05)
(3.76509e-05 -3.20143e-06 -0 3.76509e-05 -0 3.76509e-05)
(3.76582e-05 -3.20203e-06 -0 3.76582e-05 -0 3.76582e-05)
(5.11254e-05 -5.20463e-06 -0 5.11254e-05 -0 5.11254e-05)
(5.11196e-05 -5.20403e-06 -0 5.11196e-05 -0 5.11196e-05)
(5.11205e-05 -5.20413e-06 -0 5.11205e-05 -0 5.11205e-05)
(5.11304e-05 -5.20512e-06 -0 5.11304e-05 -0 5.11304e-05)
(6.77893e-05 -8.1349e-06 -0 6.77893e-05 -0 6.77893e-05)
(6.77818e-05 -8.13396e-06 -0 6.77818e-05 -0 6.77818e-05)
(6.77829e-05 -8.13413e-06 -0 6.77829e-05 -0 6.77829e-05)
(6.77962e-05 -8.13571e-06 -0 6.77962e-05 -0 6.77962e-05)
(8.80645e-05 -1.22878e-05 -0 8.80645e-05 -0 8.80645e-05)
(8.80548e-05 -1.22864e-05 -0 8.80548e-05 -0 8.80548e-05)
(8.80564e-05 -1.22867e-05 -0 8.80564e-05 -0 8.80564e-05)
(8.80738e-05 -1.22891e-05 -0 8.80738e-05 -0 8.80738e-05)
(0.00011237 -1.80077e-05 -0 0.00011237 -0 0.00011237)
(0.000112357 -1.80057e-05 -0 0.000112357 -0 0.000112357)
(0.000112359 -1.80062e-05 -0 0.000112359 -0 0.000112359)
(0.000112382 -1.80098e-05 -0 0.000112382 -0 0.000112382)
(0.000141112 -2.56821e-05 -0 0.000141112 -0 0.000141112)
(0.000141097 -2.56792e-05 -0 0.000141097 -0 0.000141097)
(0.000141099 -2.568e-05 -0 0.000141099 -0 0.000141099)
(0.000141128 -2.56854e-05 -0 0.000141128 -0 0.000141128)
(0.000174672 -3.573e-05 -0 0.000174672 -0 0.000174672)
(0.000174654 -3.57261e-05 -0 0.000174654 -0 0.000174654)
(0.000174657 -3.57274e-05 -0 0.000174657 -0 0.000174657)
(0.000174693 -3.57351e-05 -0 0.000174693 -0 0.000174693)
(0.000213389 -4.85845e-05 -0 0.000213389 -0 0.000213389)
(0.000213366 -4.85793e-05 -0 0.000213366 -0 0.000213366)
(0.000213371 -4.85814e-05 -0 0.000213371 -0 0.000213371)
(0.000213415 -4.85922e-05 -0 0.000213415 -0 0.000213415)
(0.000257536 -6.46687e-05 -0 0.000257536 -0 0.000257536)
(0.000257509 -6.4662e-05 -0 0.000257509 -0 0.000257509)
(0.000257515 -6.46652e-05 -0 0.000257515 -0 0.000257515)
(0.000257569 -6.46801e-05 -0 0.000257569 -0 0.000257569)
(0.000307309 -8.43667e-05 -0 0.000307309 -0 0.000307309)
(0.000307277 -8.43583e-05 -0 0.000307277 -0 0.000307277)
(0.000307285 -8.43631e-05 -0 0.000307285 -0 0.000307285)
(0.00030735 -8.43835e-05 -0 0.00030735 -0 0.00030735)
(0.000362799 -0.000107992 -0 0.000362799 -0 0.000362799)
(0.000362763 -0.000107982 -0 0.000362763 -0 0.000362763)
(0.000362772 -0.000107989 -0 0.000362772 -0 0.000362772)
(0.00036285 -0.000108016 -0 0.00036285 -0 0.00036285)
(0.000423985 -0.000135755 -0 0.000423984 -0 0.000423985)
(0.000423943 -0.000135742 -0 0.000423943 -0 0.000423943)
(0.000423954 -0.000135752 -0 0.000423954 -0 0.000423954)
(0.000424045 -0.000135788 -0 0.000424045 -0 0.000424045)
(0.000490712 -0.000167735 -0 0.000490711 -0 0.000490712)
(0.000490665 -0.000167721 -0 0.000490665 -0 0.000490665)
(0.000490678 -0.000167735 -0 0.000490678 -0 0.000490678)
(0.000490784 -0.000167782 -0 0.000490784 -0 0.000490784)
(0.000562692 -0.000203864 -0 0.000562692 -0 0.000562692)
(0.000562641 -0.000203849 -0 0.000562641 -0 0.000562641)
(0.000562656 -0.000203867 -0 0.000562656 -0 0.000562656)
(0.000562777 -0.000203927 -0 0.000562777 -0 0.000562777)
(0.000639505 -0.000243914 -0 0.000639504 -0 0.000639504)
(0.000639448 -0.000243897 -0 0.000639448 -0 0.000639448)
(0.000639465 -0.00024392 -0 0.000639465 -0 0.000639465)
(0.000639603 -0.000243995 -0 0.000639603 -0 0.000639603)
(0.000720599 -0.000287502 -0 0.000720599 -0 0.000720599)
(0.000720538 -0.000287484 -0 0.000720538 -0 0.000720538)
(0.000720556 -0.000287513 -0 0.000720557 -0 0.000720557)
(0.000720711 -0.000287606 -0 0.000720711 -0 0.000720711)
(0.000805317 -0.000334111 -0 0.000805316 -0 0.000805316)
(0.000805251 -0.000334093 -0 0.000805251 -0 0.000805251)
(0.000805271 -0.000334126 -0 0.000805272 -0 0.000805272)
(0.000805442 -0.00033424 -0 0.000805442 -0 0.000805442)
(0.000892908 -0.000383115 -0 0.000892907 -0 0.000892907)
(0.000892838 -0.000383097 -0 0.000892838 -0 0.000892838)
(0.00089286 -0.000383136 -0 0.00089286 -0 0.00089286)
(0.000893046 -0.000383271 -0 0.000893046 -0 0.000893046)
(0.000982558 -0.000433816 -0 0.000982558 -0 0.000982558)
(0.000982486 -0.000433798 -0 0.000982486 -0 0.000982486)
(0.000982507 -0.000433842 -0 0.000982508 -0 0.000982508)
(0.000982707 -0.000434 -0 0.000982707 -0 0.000982707)
(0.00107342 -0.000485482 -0 0.00107342 -0 0.00107342)
(0.00107334 -0.000485464 -0 0.00107334 -0 0.00107334)
(0.00107336 -0.000485513 -0 0.00107336 -0 0.00107336)
(0.00107357 -0.000485694 -0 0.00107357 -0 0.00107357)
(0.00116462 -0.000537514 -0 0.00116462 -0 0.00116462)
(0.00116455 -0.000537497 -0 0.00116455 -0 0.00116455)
(0.00116457 -0.000537552 -0 0.00116457 -0 0.00116457)
(0.00116478 -0.000537757 -0 0.00116478 -0 0.00116478)
(0.00125536 -0.000583741 -0 0.00125536 -0 0.00125536)
(0.00125528 -0.000583705 -0 0.00125528 -0 0.00125528)
(0.0012553 -0.000583713 -0 0.0012553 -0 0.0012553)
(0.00125552 -0.000583815 -0 0.00125552 -0 0.00125552)
(0.00134505 -0.00062545 -0 0.00134505 -0 0.00134505)
(0.00134497 -0.000625413 -0 0.00134497 -0 0.00134497)
(0.00134499 -0.000625421 -0 0.00134499 -0 0.00134499)
(0.00134521 -0.000625524 -0 0.00134521 -0 0.00134521)
(0.00143327 -0.000666472 -0 0.00143327 -0 0.00143327)
(0.00143319 -0.000666436 -0 0.00143319 -0 0.00143319)
(0.00143321 -0.000666442 -0 0.00143321 -0 0.00143321)
(0.00143344 -0.000666548 -0 0.00143344 -0 0.00143344)
(0.00151957 -0.000706602 -0 0.00151957 -0 0.00151957)
(0.0015195 -0.000706566 -0 0.0015195 -0 0.0015195)
(0.00151951 -0.000706572 -0 0.00151951 -0 0.00151951)
(0.00151974 -0.000706679 -0 0.00151974 -0 0.00151974)
(0.00160355 -0.00074565 -0 0.00160355 -0 0.00160355)
(0.00160347 -0.000745615 -0 0.00160347 -0 0.00160347)
(0.00160348 -0.00074562 -0 0.00160349 -0 0.00160348)
(0.00160371 -0.000745727 -0 0.00160371 -0 0.00160371)
(0.00168482 -0.000783443 -0 0.00168482 -0 0.00168482)
(0.00168475 -0.000783409 -0 0.00168475 -0 0.00168475)
(0.00168476 -0.000783414 -0 0.00168476 -0 0.00168476)
(0.00168499 -0.00078352 -0 0.00168499 -0 0.00168499)
(0.00176307 -0.000819827 -0 0.00176307 -0 0.00176307)
(0.001763 -0.000819794 -0 0.001763 -0 0.001763)
(0.00176301 -0.000819798 -0 0.00176301 -0 0.00176301)
(0.00176323 -0.000819904 -0 0.00176323 -0 0.00176323)
(0.00183799 -0.000854668 -0 0.00183799 -0 0.00183799)
(0.00183792 -0.000854636 -0 0.00183792 -0 0.00183792)
(0.00183793 -0.00085464 -0 0.00183793 -0 0.00183793)
(0.00183816 -0.000854745 -0 0.00183816 -0 0.00183816)
(0.00190935 -0.000887852 -0 0.00190935 -0 0.00190935)
(0.00190928 -0.000887822 -0 0.00190929 -0 0.00190928)
(0.00190929 -0.000887826 -0 0.00190929 -0 0.00190929)
(0.00190951 -0.000887929 -0 0.00190951 -0 0.00190951)
(0.00197693 -0.000919288 -0 0.00197693 -0 0.00197693)
(0.00197687 -0.00091926 -0 0.00197687 -0 0.00197687)
(0.00197688 -0.000919263 -0 0.00197688 -0 0.00197688)
(0.0019771 -0.000919364 -0 0.00197709 -0 0.0019771)
(0.00204057 -0.000948908 -0 0.00204057 -0 0.00204057)
(0.00204052 -0.000948882 -0 0.00204052 -0 0.00204052)
(0.00204052 -0.000948885 -0 0.00204052 -0 0.00204052)
(0.00204073 -0.000948983 -0 0.00204073 -0 0.00204073)
(0.00210014 -0.000976672 -0 0.00210014 -0 0.00210014)
(0.00210009 -0.000976648 -0 0.00210009 -0 0.00210009)
(0.00210009 -0.00097665 -0 0.0021001 -0 0.0021001)
(0.0021003 -0.000976745 -0 0.0021003 -0 0.0021003)
(0.00215555 -0.00100257 -0 0.00215555 -0 0.00215555)
(0.0021555 -0.00100255 -0 0.0021555 -0 0.0021555)
(0.0021555 -0.00100255 -0 0.0021555 -0 0.0021555)
(0.0021557 -0.00100264 -0 0.0021557 -0 0.0021557)
(0.00220672 -0.00102664 -0 0.00220672 -0 0.00220672)
(0.00220668 -0.00102662 -0 0.00220668 -0 0.00220668)
(0.00220668 -0.00102662 -0 0.00220668 -0 0.00220668)
(0.00220687 -0.00102671 -0 0.00220687 -0 0.00220687)
(0.00225363 -0.00104896 -0 0.00225363 -0 0.00225363)
(0.00225359 -0.00104894 -0 0.00225359 -0 0.00225359)
(0.00225359 -0.00104894 -0 0.00225359 -0 0.00225359)
(0.00225377 -0.00104902 -0 0.00225377 -0 0.00225377)
(0.00229625 -0.00106965 -0 0.00229624 -0 0.00229625)
(0.00229621 -0.00106964 -0 0.00229621 -0 0.00229621)
(0.00229621 -0.00106964 -0 0.00229621 -0 0.00229621)
(0.00229638 -0.00106971 -0 0.00229638 -0 0.00229638)
(0.00233458 -0.0010889 -0 0.00233457 -0 0.00233457)
(0.00233454 -0.00108888 -0 0.00233454 -0 0.00233454)
(0.00233454 -0.00108888 -0 0.00233454 -0 0.00233454)
(0.00233471 -0.00108895 -0 0.00233471 -0 0.00233471)
(0.00236862 -0.00110691 -0 0.00236861 -0 0.00236862)
(0.00236858 -0.0011069 -0 0.00236858 -0 0.00236858)
(0.00236858 -0.0011069 -0 0.00236859 -0 0.00236858)
(0.00236875 -0.00110696 -0 0.00236875 -0 0.00236875)
(0.00239837 -0.00112394 -0 0.00239837 -0 0.00239837)
(0.00239834 -0.00112392 -0 0.00239834 -0 0.00239834)
(0.00239834 -0.00112392 -0 0.00239835 -0 0.00239834)
(0.0023985 -0.00112397 -0 0.0023985 -0 0.0023985)
(0.00242384 -0.00114023 -0 0.00242384 -0 0.00242384)
(0.00242381 -0.00114022 -0 0.00242381 -0 0.00242381)
(0.00242381 -0.00114021 -0 0.00242381 -0 0.00242381)
(0.00242396 -0.00114026 -0 0.00242396 -0 0.00242396)
(0.00244499 -0.00115604 -0 0.00244499 -0 0.00244499)
(0.00244496 -0.00115602 -0 0.00244496 -0 0.00244496)
(0.00244496 -0.00115602 -0 0.00244496 -0 0.00244496)
(0.00244511 -0.00115605 -0 0.00244511 -0 0.00244511)
(0.00246177 -0.0011678 -0 0.00246177 -0 0.00246177)
(0.00246174 -0.00116781 -0 0.00246174 -0 0.00246174)
(0.00246174 -0.00116784 -0 0.00246175 -0 0.00246174)
(0.00246189 -0.00116809 -0 0.00246189 -0 0.00246189)
(0.00247419 -0.00116954 -0 0.00247419 -0 0.00247419)
(0.00247417 -0.00116955 -0 0.00247417 -0 0.00247417)
(0.00247417 -0.00116958 -0 0.00247417 -0 0.00247417)
(0.00247431 -0.00116979 -0 0.00247431 -0 0.00247431)
(0.00248251 -0.00117011 -0 0.00248251 -0 0.00248251)
(0.00248249 -0.00117013 -0 0.00248249 -0 0.00248249)
(0.00248249 -0.00117015 -0 0.00248249 -0 0.00248249)
(0.00248262 -0.00117036 -0 0.00248262 -0 0.00248262)
(0.00248691 -0.00116905 -0 0.00248691 -0 0.00248691)
(0.0024869 -0.00116908 -0 0.0024869 -0 0.0024869)
(0.0024869 -0.00116909 -0 0.0024869 -0 0.0024869)
(0.00248702 -0.00116929 -0 0.00248702 -0 0.00248702)
(0.00248759 -0.00116649 -0 0.00248759 -0 0.00248759)
(0.00248757 -0.00116651 -0 0.00248757 -0 0.00248757)
(0.00248757 -0.00116652 -0 0.00248757 -0 0.00248757)
(0.00248769 -0.0011667 -0 0.00248769 -0 0.00248769)
(0.00248471 -0.00116252 -0 0.00248471 -0 0.00248471)
(0.00248469 -0.00116253 -0 0.00248469 -0 0.00248469)
(0.00248469 -0.00116255 -0 0.00248469 -0 0.00248469)
(0.0024848 -0.00116271 -0 0.0024848 -0 0.0024848)
(0.00247844 -0.00115724 -0 0.00247844 -0 0.00247844)
(0.00247842 -0.00115726 -0 0.00247842 -0 0.00247842)
(0.00247842 -0.00115727 -0 0.00247842 -0 0.00247842)
(0.00247852 -0.00115741 -0 0.00247852 -0 0.00247852)
(0.00246892 -0.00115075 -0 0.00246892 -0 0.00246892)
(0.0024689 -0.00115076 -0 0.0024689 -0 0.0024689)
(0.0024689 -0.00115077 -0 0.0024689 -0 0.0024689)
(0.00246899 -0.0011509 -0 0.00246899 -0 0.00246899)
(0.0024563 -0.00114309 -0 0.0024563 -0 0.0024563)
(0.00245628 -0.0011431 -0 0.00245628 -0 0.00245628)
(0.00245628 -0.00114311 -0 0.00245628 -0 0.00245628)
(0.00245636 -0.00114322 -0 0.00245636 -0 0.00245636)
(0.00244069 -0.00113433 -0 0.00244069 -0 0.00244069)
(0.00244068 -0.00113434 -0 0.00244068 -0 0.00244068)
(0.00244068 -0.00113435 -0 0.00244068 -0 0.00244068)
(0.00244074 -0.00113444 -0 0.00244074 -0 0.00244074)
(0.00242221 -0.0011245 -0 0.00242221 -0 0.00242221)
(0.0024222 -0.0011245 -0 0.0024222 -0 0.0024222)
(0.0024222 -0.00112451 -0 0.0024222 -0 0.0024222)
(0.00242225 -0.00112459 -0 0.00242225 -0 0.00242225)
(0.00240095 -0.00111361 -0 0.00240095 -0 0.00240095)
(0.00240094 -0.00111361 -0 0.00240094 -0 0.00240094)
(0.00240094 -0.00111362 -0 0.00240094 -0 0.00240094)
(0.00240099 -0.00111368 -0 0.00240099 -0 0.00240099)
(0.002377 -0.00110167 -0 0.002377 -0 0.002377)
(0.00237699 -0.00110166 -0 0.00237699 -0 0.00237699)
(0.00237699 -0.00110167 -0 0.00237699 -0 0.00237699)
(0.00237703 -0.00110173 -0 0.00237703 -0 0.00237703)
(0.00235043 -0.00108867 -0 0.00235043 -0 0.00235043)
(0.00235043 -0.00108867 -0 0.00235043 -0 0.00235043)
(0.00235043 -0.00108867 -0 0.00235043 -0 0.00235043)
(0.00235046 -0.00108872 -0 0.00235046 -0 0.00235046)
(0.00232131 -0.00107462 -0 0.00232131 -0 0.00232131)
(0.00232131 -0.00107462 -0 0.00232131 -0 0.00232131)
(0.00232131 -0.00107462 -0 0.00232131 -0 0.00232131)
(0.00232133 -0.00107466 -0 0.00232133 -0 0.00232133)
(0.00228969 -0.00105951 -0 0.00228969 -0 0.00228969)
(0.00228969 -0.00105951 -0 0.00228969 -0 0.00228969)
(0.00228969 -0.00105951 -0 0.00228969 -0 0.00228969)
(0.00228971 -0.00105954 -0 0.00228971 -0 0.00228971)
(0.00225564 -0.00104334 -0 0.00225564 -0 0.00225564)
(0.00225564 -0.00104335 -0 0.00225565 -0 0.00225564)
(0.00225564 -0.00104335 -0 0.00225564 -0 0.00225564)
(0.00225566 -0.00104337 -0 0.00225565 -0 0.00225565)
(0.00221921 -0.00102613 -0 0.00221921 -0 0.00221921)
(0.00221921 -0.00102614 -0 0.00221921 -0 0.00221921)
(0.00221921 -0.00102613 -0 0.00221921 -0 0.00221921)
(0.00221922 -0.00102615 -0 0.00221922 -0 0.00221922)
(0.00218044 -0.00100789 -0 0.00218044 -0 0.00218044)
(0.00218045 -0.0010079 -0 0.00218045 -0 0.00218045)
(0.00218045 -0.00100789 -0 0.00218045 -0 0.00218045)
(0.00218045 -0.0010079 -0 0.00218045 -0 0.00218045)
(0.0021394 -0.000988653 -0 0.0021394 -0 0.0021394)
(0.00213941 -0.000988667 -0 0.00213941 -0 0.00213941)
(0.00213941 -0.000988643 -0 0.0021394 -0 0.0021394)
(0.0021394 -0.000988642 -0 0.0021394 -0 0.0021394)
(0.00209612 -0.000968461 -0 0.00209612 -0 0.00209612)
(0.00209614 -0.000968473 -0 0.00209614 -0 0.00209614)
(0.00209614 -0.000968433 -0 0.00209613 -0 0.00209613)
(0.00209612 -0.000968426 -0 0.00209612 -0 0.00209612)
(0.00205067 -0.000947373 -0 0.00205067 -0 0.00205067)
(0.00205069 -0.000947375 -0 0.00205069 -0 0.00205069)
(0.00205068 -0.000947313 -0 0.00205068 -0 0.00205068)
(0.00205066 -0.000947296 -0 0.00205066 -0 0.00205066)
(0.00200308 -0.000925454 -0 0.00200309 -0 0.00200308)
(0.00200311 -0.000925434 -0 0.00200311 -0 0.00200311)
(0.0020031 -0.000925342 -0 0.00200309 -0 0.0020031)
(0.00200306 -0.000925305 -0 0.00200306 -0 0.00200306)
(0.00195362 -0.000902868 -0 0.00195363 -0 0.00195363)
(0.00195364 -0.000902798 -0 0.00195364 -0 0.00195364)
(0.00195363 -0.000902678 -0 0.00195363 -0 0.00195363)
(0.00195358 -0.00090259 -0 0.00195358 -0 0.00195358)
(0.00190258 -0.000879946 -0 0.00190258 -0 0.00190258)
(0.00190259 -0.000879714 -0 0.00190259 -0 0.00190259)
(0.00190257 -0.000879613 -0 0.00190257 -0 0.00190257)
(0.0019025 -0.000879316 -0 0.0019025 -0 0.0019025)
(0.0018499 -0.000855949 -0 0.00184989 -0 0.00184989)
(0.00184991 -0.000855901 -0 0.00184991 -0 0.00184991)
(0.00184989 -0.000855721 -0 0.00184989 -0 0.00184989)
(0.00184983 -0.00085559 -0 0.00184983 -0 0.00184983)
(0.00179548 -0.000829969 -0 0.00179548 -0 0.00179548)
(0.0017955 -0.000829987 -0 0.0017955 -0 0.0017955)
(0.00179548 -0.000829859 -0 0.00179549 -0 0.00179548)
(0.00179544 -0.000829837 -0 0.00179544 -0 0.00179544)
(0.00173935 -0.000801922 -0 0.00173934 -0 0.00173934)
(0.00173936 -0.000801971 -0 0.00173936 -0 0.00173936)
(0.00173935 -0.000801905 -0 0.00173935 -0 0.00173935)
(0.00173933 -0.000801964 -0 0.00173934 -0 0.00173934)
(0.00168161 -0.000771899 -0 0.00168161 -0 0.00168161)
(0.00168163 -0.000771975 -0 0.00168162 -0 0.00168162)
(0.00168161 -0.000771933 -0 0.00168162 -0 0.00168161)
(0.00168162 -0.00077207 -0 0.00168162 -0 0.00168162)
(0.00162247 -0.00074001 -0 0.00162247 -0 0.00162247)
(0.00162248 -0.000740123 -0 0.00162247 -0 0.00162247)
(0.00162246 -0.000740093 -0 0.00162247 -0 0.00162247)
(0.00162249 -0.000740293 -0 0.00162249 -0 0.00162249)
(0.00156217 -0.000706411 -0 0.00156217 -0 0.00156217)
(0.00156217 -0.000706546 -0 0.00156217 -0 0.00156217)
(0.00156216 -0.000706527 -0 0.00156216 -0 0.00156216)
(0.0015622 -0.000706783 -0 0.00156221 -0 0.0015622)
(0.00150103 -0.00067124 -0 0.00150104 -0 0.00150103)
(0.00150104 -0.000671392 -0 0.00150103 -0 0.00150103)
(0.00150103 -0.000671378 -0 0.00150102 -0 0.00150102)
(0.00150107 -0.000671685 -0 0.00150108 -0 0.00150108)
(0.00143943 -0.000634632 -0 0.00143944 -0 0.00143944)
(0.00143943 -0.000634797 -0 0.00143943 -0 0.00143943)
(0.00143942 -0.000634782 -0 0.00143942 -0 0.00143942)
(0.00143948 -0.000635135 -0 0.00143948 -0 0.00143948)
(0.00137779 -0.000596711 -0 0.00137779 -0 0.00137779)
(0.00137778 -0.000596885 -0 0.00137778 -0 0.00137778)
(0.00137777 -0.000596868 -0 0.00137777 -0 0.00137777)
(0.00137784 -0.00059726 -0 0.00137784 -0 0.00137784)
(0.00131657 -0.000557593 -0 0.00131657 -0 0.00131657)
(0.00131656 -0.000557772 -0 0.00131656 -0 0.00131656)
(0.00131655 -0.000557755 -0 0.00131654 -0 0.00131654)
(0.00131662 -0.000558177 -0 0.00131662 -0 0.00131662)
(0.00125629 -0.000517385 -0 0.00125629 -0 0.00125629)
(0.00125627 -0.000517564 -0 0.00125627 -0 0.00125627)
(0.00125626 -0.000517553 -0 0.00125626 -0 0.00125626)
(0.00125633 -0.000517993 -0 0.00125633 -0 0.00125633)
(0.0011975 -0.000476187 -0 0.0011975 -0 0.0011975)
(0.00119748 -0.000476355 -0 0.00119748 -0 0.00119748)
(0.00119746 -0.000476368 -0 0.00119746 -0 0.00119746)
(0.00119754 -0.000476806 -0 0.00119754 -0 0.00119754)
(0.00114079 -0.000434091 -0 0.00114079 -0 0.00114079)
(0.00114076 -0.000434231 -0 0.00114076 -0 0.00114076)
(0.00114075 -0.000434304 -0 0.00114075 -0 0.00114075)
(0.00114083 -0.000434708 -0 0.00114083 -0 0.00114083)
(0.00108679 -0.000391185 -0 0.00108679 -0 0.00108679)
(0.00108676 -0.000391259 -0 0.00108676 -0 0.00108676)
(0.00108675 -0.000391444 -0 0.00108675 -0 0.00108675)
(0.00108683 -0.000391778 -0 0.00108683 -0 0.00108683)
(0.00103616 -0.000347552 -0 0.00103616 -0 0.00103616)
(0.00103611 -0.000347425 -0 0.00103611 -0 0.00103611)
(0.00103611 -0.000347855 -0 0.00103611 -0 0.00103611)
(0.00103619 -0.0003481 -0 0.00103619 -0 0.00103619)
(0.000989549 -0.00030321 -0 0.000989553 -0 0.000989551)
(0.000989488 -0.000303072 -0 0.000989488 -0 0.000989488)
(0.000989502 -0.000303522 -0 0.000989498 -0 0.0009895)
(0.000989578 -0.000303728 -0 0.000989577 -0 0.000989577)
(0.000947648 -0.000258237 -0 0.000947654 -0 0.000947651)
(0.00094758 -0.000258097 -0 0.000947582 -0 0.000947581)
(0.000947598 -0.000258535 -0 0.000947593 -0 0.000947596)
(0.000947675 -0.000258718 -0 0.000947673 -0 0.000947674)
(0.000911099 -0.000212669 -0 0.000911107 -0 0.000911103)
(0.000911027 -0.000212538 -0 0.000911031 -0 0.000911029)
(0.000911048 -0.000212933 -0 0.00091104 -0 0.000911044)
(0.000911126 -0.000213098 -0 0.000911123 -0 0.000911124)
(0.000880399 -0.000166497 -0 0.000880408 -0 0.000880404)
(0.000880324 -0.000166385 -0 0.000880329 -0 0.000880326)
(0.000880347 -0.000166714 -0 0.000880339 -0 0.000880343)
(0.000880431 -0.000166859 -0 0.000880426 -0 0.000880428)
(0.000856045 -0.000119711 -0 0.000856055 -0 0.00085605)
(0.00085597 -0.000119628 -0 0.000855975 -0 0.000855973)
(0.000855992 -0.000119872 -0 0.000855983 -0 0.000855988)
(0.000856077 -0.000119992 -0 0.000856072 -0 0.000856075)
(0.000839072 -7.23646e-05 -0 0.000839082 -0 0.000839077)
(0.000839 -7.2318e-05 -0 0.000839006 -0 0.000839003)
(0.00083902 -7.24653e-05 -0 0.000839009 -0 0.000839014)
(0.000839103 -7.25487e-05 -0 0.000839096 -0 0.000839099)
(0.000830365 -2.42943e-05 -0 0.000830375 -0 0.00083037)
(0.000830296 -2.42846e-05 -0 0.000830303 -0 0.0008303)
(0.000830315 -2.43309e-05 -0 0.000830304 -0 0.000830309)
(0.000830397 -2.43649e-05 -0 0.00083039 -0 0.000830393)
)
;

boundaryField
{
    inlet
    {
        type            cyclic;
    }
    outlet
    {
        type            cyclic;
    }
    fixedWalls-bottom
    {
        type            kqRWallFunction;
        value           nonuniform List<symmTensor> 4((5.87065e-10 -0 -0 5.87065e-10 -0 5.87065e-10) (5.86997e-10 -0 -0 5.86997e-10 -0 5.86997e-10) (5.87006e-10 -0 -0 5.87006e-10 -0 5.87006e-10) (5.87111e-10 -0 -0 5.87111e-10 -0 5.87111e-10));
    }
    fixedWalls-top
    {
        type            symmetry;
    }
    frontAndBack
    {
        type            empty;
    }
}


// ************************************************************************* //
