/*--------------------------------*- C++ -*----------------------------------*\
  =========                 |
  \\      /  F ield         | OpenFOAM: The Open Source CFD Toolbox
   \\    /   O peration     | Website:  https://openfoam.org
    \\  /    A nd           | Version:  10
     \\/     M anipulation  |
\*---------------------------------------------------------------------------*/
FoamFile
{
    format      ascii;
    class       volScalarField;
    location    "1932";
    object      p;
}
// * * * * * * * * * * * * * * * * * * * * * * * * * * * * * * * * * * * * * //

dimensions      [0 2 -2 0 0 0 0];

internalField   nonuniform List<scalar> 
400
(
-3.13789e-11
-9.73654e-07
-7.73521e-06
-6.76226e-06
-4.81187e-09
-9.65198e-07
-7.7305e-06
-6.77072e-06
-1.00312e-08
-9.55109e-07
-7.7253e-06
-6.78081e-06
-1.47807e-08
-9.44891e-07
-7.72056e-06
-6.79103e-06
-1.91167e-08
-9.34458e-07
-7.71622e-06
-6.80146e-06
-2.31535e-08
-9.23636e-07
-7.71218e-06
-6.81228e-06
-2.69132e-08
-9.1239e-07
-7.70842e-06
-6.82353e-06
-3.03907e-08
-9.0073e-07
-7.70494e-06
-6.83519e-06
-3.35858e-08
-8.88669e-07
-7.70175e-06
-6.84725e-06
-3.65082e-08
-8.76224e-07
-7.69882e-06
-6.85969e-06
-3.91749e-08
-8.63425e-07
-7.69616e-06
-6.87249e-06
-4.16122e-08
-8.50319e-07
-7.69372e-06
-6.8856e-06
-4.38576e-08
-8.36977e-07
-7.69148e-06
-6.89894e-06
-4.59654e-08
-8.23514e-07
-7.68937e-06
-6.9124e-06
-4.80109e-08
-8.10108e-07
-7.68732e-06
-6.92581e-06
-5.01003e-08
-7.97038e-07
-7.68523e-06
-6.93888e-06
-5.23804e-08
-7.84757e-07
-7.68295e-06
-6.95116e-06
-5.50587e-08
-7.74008e-07
-7.68028e-06
-6.96191e-06
-5.84309e-08
-7.66031e-07
-7.67691e-06
-6.96989e-06
-6.29234e-08
-7.62879e-07
-7.67241e-06
-6.97304e-06
-6.91331e-08
-7.67775e-07
-7.66621e-06
-6.96815e-06
-7.7927e-08
-7.85747e-07
-7.65741e-06
-6.95019e-06
-9.09533e-08
-8.26295e-07
-7.64439e-06
-6.90965e-06
-1.12216e-07
-9.11568e-07
-7.62313e-06
-6.82438e-06
-1.49104e-07
-1.08279e-06
-7.58625e-06
-6.65316e-06
-2.03205e-07
-1.35538e-06
-7.53216e-06
-6.38056e-06
-2.39524e-07
-1.55939e-06
-7.49583e-06
-6.17654e-06
-2.44919e-07
-1.62083e-06
-7.49042e-06
-6.1151e-06
-2.45583e-07
-1.65788e-06
-7.48975e-06
-6.07804e-06
-2.48411e-07
-1.69964e-06
-7.48692e-06
-6.03628e-06
-2.52773e-07
-1.74047e-06
-7.48255e-06
-5.99545e-06
-2.58051e-07
-1.7747e-06
-7.47727e-06
-5.96122e-06
-2.64387e-07
-1.80023e-06
-7.47094e-06
-5.9357e-06
-2.72029e-07
-1.81569e-06
-7.46329e-06
-5.92023e-06
-2.81203e-07
-1.82011e-06
-7.45412e-06
-5.91581e-06
-2.92775e-07
-1.81516e-06
-7.44256e-06
-5.92076e-06
-3.08399e-07
-1.80483e-06
-7.42693e-06
-5.93109e-06
-3.29994e-07
-1.79262e-06
-7.40534e-06
-5.94331e-06
-3.59574e-07
-1.781e-06
-7.37576e-06
-5.95494e-06
-3.99211e-07
-1.77172e-06
-7.33611e-06
-5.96423e-06
-4.51081e-07
-1.76614e-06
-7.28424e-06
-5.96982e-06
-5.17459e-07
-1.76541e-06
-7.21785e-06
-5.97057e-06
-6.00705e-07
-1.77062e-06
-7.1346e-06
-5.96539e-06
-7.03276e-07
-1.78288e-06
-7.03201e-06
-5.95315e-06
-8.27683e-07
-1.80342e-06
-6.90759e-06
-5.93264e-06
-9.76244e-07
-1.83347e-06
-6.75902e-06
-5.90261e-06
-1.15062e-06
-1.87416e-06
-6.58463e-06
-5.86194e-06
-1.35159e-06
-1.92636e-06
-6.38366e-06
-5.80974e-06
-1.57911e-06
-1.99066e-06
-6.15613e-06
-5.74543e-06
-1.8324e-06
-2.06724e-06
-5.90285e-06
-5.66883e-06
-2.10988e-06
-2.1558e-06
-5.62539e-06
-5.58022e-06
-2.40912e-06
-2.25546e-06
-5.32617e-06
-5.48049e-06
-2.72678e-06
-2.36466e-06
-5.00853e-06
-5.37122e-06
-3.05834e-06
-2.48112e-06
-4.67701e-06
-5.25466e-06
-3.39774e-06
-2.60191e-06
-4.33765e-06
-5.13377e-06
-3.73685e-06
-2.72365e-06
-3.99858e-06
-5.01195e-06
-4.06428e-06
-2.84302e-06
-3.67119e-06
-4.89252e-06
-4.36425e-06
-2.95767e-06
-3.37125e-06
-4.77786e-06
-4.61924e-06
-3.06638e-06
-3.11626e-06
-4.66919e-06
-4.82222e-06
-3.16718e-06
-2.91328e-06
-4.56846e-06
-4.97901e-06
-3.25673e-06
-2.75648e-06
-4.479e-06
-5.09853e-06
-3.33223e-06
-2.63694e-06
-4.40358e-06
-5.18948e-06
-3.39203e-06
-2.54598e-06
-4.34386e-06
-5.26019e-06
-3.43511e-06
-2.47524e-06
-4.30084e-06
-5.31867e-06
-3.46083e-06
-2.41675e-06
-4.27516e-06
-5.37253e-06
-3.46895e-06
-2.36288e-06
-4.26705e-06
-5.42911e-06
-3.45958e-06
-2.3063e-06
-4.2764e-06
-5.49547e-06
-3.43265e-06
-2.23992e-06
-4.30329e-06
-5.57845e-06
-3.3873e-06
-2.15692e-06
-4.34857e-06
-5.68416e-06
-3.32149e-06
-2.05116e-06
-4.41429e-06
-5.8165e-06
-3.23177e-06
-1.91873e-06
-4.50389e-06
-5.97669e-06
-3.11059e-06
-1.75827e-06
-4.62499e-06
-6.17633e-06
-2.9355e-06
-1.55789e-06
-4.80019e-06
-6.4609e-06
-2.65544e-06
-1.27193e-06
-5.08071e-06
-6.81878e-06
-2.2476e-06
-9.13714e-07
-5.48858e-06
-6.70817e-06
-2.007e-06
-1.02977e-06
-5.72596e-06
-4.65881e-06
-2.81485e-06
-3.08454e-06
-4.91455e-06
-1.37296e-06
-4.31826e-06
-6.36437e-06
-3.41478e-06
1.02968e-06
-5.47201e-06
-8.76084e-06
-2.26409e-06
2.25402e-06
-6.22203e-06
-9.98441e-06
-1.51442e-06
2.6644e-06
-6.66867e-06
-1.03966e-05
-1.06735e-06
2.65249e-06
-6.90618e-06
-1.03865e-05
-8.29658e-07
2.49122e-06
-7.00596e-06
-1.02262e-05
-7.29931e-07
2.31058e-06
-7.02858e-06
-1.00459e-05
-7.07382e-07
2.13895e-06
-7.01284e-06
-9.87433e-06
-7.23151e-07
1.98561e-06
-6.98082e-06
-9.721e-06
-7.55162e-07
1.85445e-06
-6.94637e-06
-9.58982e-06
-7.8958e-07
1.74398e-06
-6.91437e-06
-9.47934e-06
-8.21552e-07
1.65043e-06
-6.88584e-06
-9.38578e-06
-8.50072e-07
1.57042e-06
-6.8609e-06
-9.30578e-06
-8.74994e-07
1.50144e-06
-6.83947e-06
-9.23679e-06
-8.96418e-07
1.4416e-06
-6.82121e-06
-9.17696e-06
-9.14672e-07
1.38962e-06
-6.80569e-06
-9.12498e-06
-9.3019e-07
1.34463e-06
-6.79251e-06
-9.08e-06
-9.4337e-07
1.30612e-06
-6.78137e-06
-9.04149e-06
-9.54512e-07
1.2738e-06
-6.77208e-06
-9.00917e-06
-9.63801e-07
1.24758e-06
-6.76456e-06
-8.98295e-06
-9.71315e-07
1.22762e-06
-6.75887e-06
-8.963e-06
-9.77011e-07
1.2145e-06
-6.75523e-06
-8.94988e-06
-9.80647e-07
1.2085e-06
-6.75373e-06
-8.94388e-06
-9.82148e-07
)
;

boundaryField
{
    inlet
    {
        type            cyclic;
    }
    outlet
    {
        type            cyclic;
    }
    fixedWalls-bottom
    {
        type            zeroGradient;
    }
    fixedWalls-top
    {
        type            symmetry;
    }
    frontAndBack
    {
        type            empty;
    }
}


// ************************************************************************* //
