/*--------------------------------*- C++ -*----------------------------------*\
  =========                 |
  \\      /  F ield         | OpenFOAM: The Open Source CFD Toolbox
   \\    /   O peration     | Website:  https://openfoam.org
    \\  /    A nd           | Version:  10
     \\/     M anipulation  |
\*---------------------------------------------------------------------------*/
FoamFile
{
    format      ascii;
    class       volScalarField;
    location    "522";
    object      k;
}
// * * * * * * * * * * * * * * * * * * * * * * * * * * * * * * * * * * * * * //

dimensions      [0 2 -2 0 0 0 0];

internalField   nonuniform List<scalar> 
200
(
3.20306e-05
3.20295e-05
3.20279e-05
3.20279e-05
0.000914662
0.00091463
0.000914586
0.000914586
0.00389432
0.00389422
0.00389408
0.00389408
0.00577543
0.00577535
0.0057752
0.00577519
0.0067148
0.00671474
0.0067146
0.00671459
0.00719317
0.00719314
0.00719302
0.00719302
0.00744252
0.0074425
0.00744242
0.00744243
0.00756949
0.00756948
0.00756942
0.00756944
0.00762498
0.00762498
0.00762494
0.00762498
0.00763514
0.00763513
0.00763512
0.00763516
0.00761406
0.00761404
0.00761406
0.00761409
0.00757014
0.00757011
0.00757015
0.00757017
0.00750885
0.00750883
0.00750888
0.0075089
0.00743393
0.0074339
0.00743396
0.00743398
0.00734797
0.00734794
0.007348
0.00734803
0.00725282
0.00725279
0.00725283
0.00725285
0.00714964
0.00714961
0.00714964
0.00714965
0.00703921
0.00703919
0.00703921
0.0070392
0.00692203
0.006922
0.00692202
0.00692199
0.00679843
0.0067984
0.00679842
0.00679836
0.00666874
0.0066687
0.00666874
0.00666864
0.00653335
0.00653332
0.00653335
0.00653323
0.00639283
0.00639282
0.00639283
0.00639271
0.00624796
0.00624797
0.00624799
0.00624785
0.00609972
0.00609974
0.00609974
0.00609961
0.005949
0.00594903
0.00594901
0.0059489
0.00579623
0.00579628
0.00579621
0.0057961
0.0056415
0.00564157
0.00564147
0.00564134
0.00548506
0.00548513
0.00548504
0.00548488
0.0053273
0.00532736
0.00532727
0.0053271
0.00516862
0.00516869
0.0051686
0.00516842
0.0050095
0.00500956
0.00500947
0.0050093
0.00485044
0.00485049
0.00485042
0.00485026
0.00469203
0.00469203
0.00469202
0.00469185
0.00453486
0.00453487
0.00453488
0.00453472
0.00437968
0.00437967
0.00437971
0.00437955
0.00422721
0.00422721
0.00422724
0.00422709
0.00407828
0.00407828
0.00407832
0.00407817
0.00393378
0.00393378
0.00393382
0.00393368
0.00379467
0.00379466
0.0037947
0.00379457
0.00366195
0.00366194
0.00366198
0.00366186
0.00353672
0.00353671
0.00353675
0.00353663
0.00342011
0.0034201
0.00342013
0.00342003
0.00331332
0.0033133
0.00331333
0.00331324
0.00321759
0.00321758
0.0032176
0.00321752
0.00313423
0.00313421
0.00313424
0.00313416
0.00306456
0.00306454
0.00306458
0.0030645
0.00301
0.00300999
0.00301003
0.00300995
0.00297202
0.00297201
0.00297205
0.00297197
0.00295218
0.00295217
0.0029522
0.00295213
)
;

boundaryField
{
    inlet
    {
        type            cyclic;
    }
    outlet
    {
        type            cyclic;
    }
    fixedWalls-bottom
    {
        type            kqRWallFunction;
        value           nonuniform List<scalar> 4(3.20306e-05 3.20295e-05 3.20279e-05 3.20279e-05);
    }
    fixedWalls-top
    {
        type            symmetry;
    }
    frontAndBack
    {
        type            empty;
    }
}


// ************************************************************************* //
