/*--------------------------------*- C++ -*----------------------------------*\
  =========                 |
  \\      /  F ield         | OpenFOAM: The Open Source CFD Toolbox
   \\    /   O peration     | Website:  https://openfoam.org
    \\  /    A nd           | Version:  10
     \\/     M anipulation  |
\*---------------------------------------------------------------------------*/
FoamFile
{
    format      ascii;
    class       volScalarField;
    location    "522";
    object      nut;
}
// * * * * * * * * * * * * * * * * * * * * * * * * * * * * * * * * * * * * * //

dimensions      [0 2 -1 0 0 0 0];

internalField   nonuniform List<scalar> 
200
(
6.82378e-08
6.82354e-08
6.8232e-08
6.8232e-08
9.76367e-06
9.76326e-06
9.76279e-06
9.7628e-06
8.98115e-05
8.98072e-05
8.98035e-05
8.98035e-05
0.000212608
0.000212606
0.000212599
0.000212597
0.00036176
0.000361759
0.000361751
0.000361748
0.000528675
0.000528676
0.000528668
0.000528664
0.000706368
0.000706368
0.000706361
0.000706357
0.000889598
0.000889595
0.000889588
0.000889589
0.00107369
0.00107368
0.00107368
0.00107371
0.00125875
0.00125876
0.00125876
0.0012588
0.0014456
0.00144562
0.00144562
0.00144568
0.00163365
0.00163367
0.00163368
0.00163375
0.00182245
0.00182248
0.00182249
0.00182257
0.00201167
0.0020117
0.00201172
0.00201181
0.00220105
0.00220108
0.00220109
0.00220121
0.00238945
0.00238943
0.00238943
0.00238942
0.00257403
0.00257402
0.00257403
0.00257398
0.00275575
0.00275575
0.00275577
0.00275572
0.00293548
0.00293549
0.00293552
0.00293548
0.00311437
0.00311438
0.00311441
0.00311435
0.00329411
0.00329411
0.00329413
0.00329405
0.00347723
0.00347722
0.00347718
0.00347712
0.00366698
0.00366691
0.0036668
0.00366686
0.00386643
0.00386627
0.00386614
0.00386646
0.00407639
0.00407621
0.00407612
0.00407673
0.00429133
0.00429135
0.00429127
0.00429167
0.0044933
0.00449356
0.00449315
0.00449158
0.00468373
0.00468373
0.00468354
0.00468141
0.00487226
0.00487134
0.00487168
0.00486922
0.00505803
0.0050573
0.00505749
0.00505497
0.0052411
0.00524125
0.00524063
0.00523854
0.00542233
0.00542181
0.00542168
0.00541961
0.00560106
0.00560024
0.00560037
0.00559802
0.00577746
0.005776
0.00577685
0.00577357
0.00595054
0.00594907
0.00594985
0.00594654
0.00612064
0.00611915
0.0061198
0.00611656
0.00628753
0.00628603
0.00628662
0.00628339
0.00645096
0.00644945
0.00645004
0.00644678
0.00661062
0.00660908
0.00660969
0.0066064
0.00676604
0.00676446
0.00676512
0.00676179
0.00691662
0.00691499
0.00691569
0.00691232
0.00706152
0.00705982
0.00706056
0.00705715
0.00719961
0.00719779
0.00719861
0.00719512
0.0073294
0.00732743
0.00732836
0.00732475
0.00744898
0.00744681
0.00744793
0.00744413
0.00755598
0.0075536
0.00755498
0.00755092
0.00764753
0.00764502
0.00764665
0.00764241
0.0077203
0.00771803
0.00771926
0.0077156
0.00777028
0.00776948
0.00776926
0.00776693
0.00779688
0.0077951
0.0077948
0.00779259
)
;

boundaryField
{
    inlet
    {
        type            cyclic;
    }
    outlet
    {
        type            cyclic;
    }
    fixedWalls-bottom
    {
        type            nutkWallFunction;
        Cmu             0.09;
        kappa           0.41;
        E               9.8;
        value           uniform 0;
    }
    fixedWalls-top
    {
        type            symmetry;
    }
    frontAndBack
    {
        type            empty;
    }
}


// ************************************************************************* //
