/*--------------------------------*- C++ -*----------------------------------*\
  =========                 |
  \\      /  F ield         | OpenFOAM: The Open Source CFD Toolbox
   \\    /   O peration     | Website:  https://openfoam.org
    \\  /    A nd           | Version:  10
     \\/     M anipulation  |
\*---------------------------------------------------------------------------*/
FoamFile
{
    format      ascii;
    class       volScalarField;
    location    "522";
    object      omega;
}
// * * * * * * * * * * * * * * * * * * * * * * * * * * * * * * * * * * * * * //

dimensions      [0 0 -1 0 0 0 0];

internalField   nonuniform List<scalar> 
200
(
469.397
469.397
469.397
469.397
93.6801
93.6808
93.6808
93.6807
43.3611
43.362
43.3622
43.3622
26.3285
26.3293
26.3295
26.3295
18.0552
18.0558
18.0559
18.0559
13.3745
13.3748
13.3749
13.375
10.4539
10.4541
10.4542
10.4541
8.49438
8.4945
8.4945
8.49441
7.10167
7.10172
7.10168
7.10155
6.06563
6.06559
6.0656
6.06543
5.26704
5.26697
5.26697
5.2668
4.63388
4.6338
4.6338
4.63363
4.1202
4.12012
4.12012
4.11995
3.6954
3.69533
3.69533
3.69517
3.33839
3.33834
3.33835
3.33818
3.0342
3.03415
3.03412
3.03404
2.7717
2.77169
2.77163
2.77158
2.54246
2.54244
2.54237
2.54239
2.34015
2.34011
2.34008
2.34013
2.15993
2.15989
2.15989
2.15997
1.99807
1.99804
1.99805
1.99817
1.85165
1.8516
1.85165
1.85182
1.71841
1.71838
1.71842
1.71865
1.59666
1.59669
1.59666
1.59698
1.4852
1.48526
1.48523
1.48559
1.38319
1.38325
1.38324
1.38365
1.28997
1.28991
1.29001
1.29044
1.20449
1.2045
1.20453
1.20505
1.12577
1.126
1.1259
1.12644
1.05324
1.0534
1.05334
1.05383
0.986171
0.986156
0.986255
0.986614
0.923863
0.923965
0.92397
0.924291
0.865987
0.866121
0.866089
0.866424
0.812126
0.812332
0.812211
0.812643
0.762093
0.762281
0.762185
0.762581
0.715559
0.715732
0.715662
0.716015
0.672317
0.672476
0.672419
0.67274
0.632198
0.632345
0.632293
0.632591
0.595071
0.595208
0.595159
0.595435
0.56084
0.560969
0.560921
0.561178
0.529442
0.529565
0.529518
0.529758
0.500844
0.500963
0.500916
0.501141
0.475041
0.475159
0.47511
0.475326
0.452059
0.452178
0.452125
0.452335
0.431951
0.432074
0.432013
0.432223
0.414801
0.414929
0.414857
0.415069
0.400726
0.400855
0.400774
0.400985
0.389881
0.389994
0.389937
0.390112
0.382485
0.382524
0.382539
0.382644
0.378636
0.378721
0.37874
0.378839
)
;

boundaryField
{
    inlet
    {
        type            cyclic;
    }
    outlet
    {
        type            cyclic;
    }
    fixedWalls-bottom
    {
        beta1           0.075;
        blended         0;
        type            omegaWallFunction;
        value           nonuniform List<scalar> 4(469.397 469.397 469.397 469.397);
    }
    fixedWalls-top
    {
        type            symmetry;
    }
    frontAndBack
    {
        type            empty;
    }
}


// ************************************************************************* //
