/*--------------------------------*- C++ -*----------------------------------*\
  =========                 |
  \\      /  F ield         | OpenFOAM: The Open Source CFD Toolbox
   \\    /   O peration     | Website:  https://openfoam.org
    \\  /    A nd           | Version:  10
     \\/     M anipulation  |
\*---------------------------------------------------------------------------*/
FoamFile
{
    format      ascii;
    class       volScalarField;
    location    "522";
    object      p;
}
// * * * * * * * * * * * * * * * * * * * * * * * * * * * * * * * * * * * * * //

dimensions      [0 2 -2 0 0 0 0];

internalField   nonuniform List<scalar> 
200
(
-1.65257e-12
1.47031e-07
1.33255e-07
-1.60304e-08
-2.89058e-10
1.46998e-07
1.33526e-07
-1.59952e-08
-2.7044e-10
1.4599e-07
1.33501e-07
-1.49804e-08
2.8468e-10
1.4414e-07
1.32943e-07
-1.31223e-08
1.06052e-09
1.42536e-07
1.32162e-07
-1.15105e-08
1.73669e-09
1.41455e-07
1.31479e-07
-1.04209e-08
2.18827e-09
1.40748e-07
1.3102e-07
-9.70501e-09
2.2043e-09
1.40112e-07
1.30997e-07
-9.05889e-09
1.05391e-09
1.39461e-07
1.32139e-07
-8.39822e-09
-1.33895e-09
1.39112e-07
1.34525e-07
-8.03845e-09
-4.47476e-09
1.39343e-07
1.37652e-07
-8.25787e-09
-8.30197e-09
1.40097e-07
1.41471e-07
-9.00108e-09
-1.28142e-08
1.41215e-07
1.45975e-07
-1.01068e-08
-1.80908e-08
1.42475e-07
1.51243e-07
-1.13545e-08
-2.38887e-08
1.4342e-07
1.57032e-07
-1.22875e-08
-2.81614e-08
1.43498e-07
1.61295e-07
-1.23524e-08
-3.022e-08
1.43221e-07
1.63344e-07
-1.20618e-08
-3.19988e-08
1.43542e-07
1.65112e-07
-1.23695e-08
-3.44389e-08
1.44543e-07
1.67541e-07
-1.33555e-08
-3.72704e-08
1.45901e-07
1.7036e-07
-1.46996e-08
-3.9779e-08
1.47171e-07
1.72856e-07
-1.59542e-08
-4.16162e-08
1.47582e-07
1.74679e-07
-1.63494e-08
-4.39263e-08
1.46039e-07
1.76974e-07
-1.47901e-08
-5.00541e-08
1.41987e-07
1.83087e-07
-1.07206e-08
-6.30163e-08
1.3689e-07
1.96032e-07
-5.6066e-09
-7.67934e-08
1.33728e-07
2.09792e-07
-2.42811e-09
-7.13002e-08
1.32794e-07
2.0428e-07
-1.48042e-09
-4.59633e-08
1.31713e-07
1.78926e-07
-3.81677e-10
-1.97551e-08
1.27548e-07
1.52699e-07
3.80374e-09
4.0837e-09
1.21248e-07
1.28842e-07
1.01237e-08
2.92667e-08
1.16168e-07
1.0364e-07
1.5224e-08
5.23105e-08
1.111e-07
8.05781e-08
2.03107e-08
7.11933e-08
1.05113e-07
6.16767e-08
2.63157e-08
8.99511e-08
9.95966e-08
4.29005e-08
3.185e-08
1.09676e-07
9.42261e-08
2.31581e-08
3.72372e-08
1.29399e-07
8.77801e-08
3.41583e-09
4.37009e-08
1.48479e-07
8.05098e-08
-1.56812e-08
5.09859e-08
1.666e-07
7.33166e-08
-3.38211e-08
5.8196e-08
1.83562e-07
6.66844e-08
-5.07991e-08
6.48421e-08
1.99274e-07
6.07179e-08
-6.65291e-08
7.08254e-08
2.13642e-07
5.52948e-08
-8.09118e-08
7.62622e-08
2.26607e-07
5.02849e-08
-9.38923e-08
8.12886e-08
2.3821e-07
4.56327e-08
-1.05507e-07
8.59543e-08
2.48463e-07
4.13309e-08
-1.15773e-07
9.02721e-08
2.57386e-07
3.74929e-08
-1.24705e-07
9.41241e-08
2.64941e-07
3.43895e-08
-1.32268e-07
9.72424e-08
2.70962e-07
3.21639e-08
-1.38295e-07
9.94809e-08
2.75261e-07
3.04531e-08
-1.42597e-07
1.01203e-07
2.78096e-07
2.90405e-08
-1.45432e-07
1.02623e-07
2.80144e-07
2.77905e-08
-1.47474e-07
1.03877e-07
)
;

boundaryField
{
    inlet
    {
        type            cyclic;
    }
    outlet
    {
        type            cyclic;
    }
    fixedWalls-bottom
    {
        type            zeroGradient;
    }
    fixedWalls-top
    {
        type            symmetry;
    }
    frontAndBack
    {
        type            empty;
    }
}


// ************************************************************************* //
