/*--------------------------------*- C++ -*----------------------------------*\
  =========                 |
  \\      /  F ield         | OpenFOAM: The Open Source CFD Toolbox
   \\    /   O peration     | Website:  https://openfoam.org
    \\  /    A nd           | Version:  10
     \\/     M anipulation  |
\*---------------------------------------------------------------------------*/
FoamFile
{
    format      ascii;
    class       surfaceScalarField;
    location    "522";
    object      phi;
}
// * * * * * * * * * * * * * * * * * * * * * * * * * * * * * * * * * * * * * //

dimensions      [0 3 -1 0 0 0 0];

internalField   nonuniform List<scalar> 
346
(
0.00195443
-6.41396e-09
0.00195442
6.54339e-09
0.00195441
6.59029e-09
-6.56876e-09
0.00590017
-2.5324e-08
0.00590015
2.43481e-08
0.00590013
2.55788e-08
-2.44718e-08
0.00910485
-3.82559e-08
0.00910484
3.04272e-08
0.00910483
3.85096e-08
-3.05721e-08
0.0113762
-3.95856e-08
0.0113762
2.90941e-08
0.0113762
3.98653e-08
-2.92823e-08
0.0131116
-3.38812e-08
0.0131116
2.94662e-08
0.0131116
3.4161e-08
-2.96562e-08
0.0145531
-2.46692e-08
0.0145531
3.36277e-08
0.0145531
2.49536e-08
-3.38382e-08
0.0158262
-1.3021e-08
0.0158262
4.10551e-08
0.0158262
1.33011e-08
-4.12635e-08
0.0169999
1.14294e-09
0.0169999
4.93952e-08
0.0169999
-8.66857e-10
-4.96115e-08
0.0181149
1.48583e-08
0.0181148
5.63657e-08
0.0181149
-1.45851e-08
-5.65834e-08
0.0191962
2.62324e-08
0.0191962
6.13492e-08
0.0191962
-2.59673e-08
-6.15664e-08
0.0202595
3.53162e-08
0.0202595
6.48385e-08
0.0202595
-3.5052e-08
-6.50603e-08
0.0213155
4.1487e-08
0.0213154
6.72527e-08
0.0213155
-4.12347e-08
-6.74672e-08
0.0223718
4.4327e-08
0.0223718
6.87078e-08
0.0223718
-4.40698e-08
-6.89314e-08
0.0234344
4.31099e-08
0.0234344
6.94089e-08
0.0234344
-4.28673e-08
-6.96209e-08
0.0245078
3.67859e-08
0.0245078
6.91107e-08
0.0245078
-3.65326e-08
-6.93357e-08
0.0255959
2.94936e-08
0.0255959
6.68618e-08
0.0255959
-2.92568e-08
-6.70724e-08
0.0267021
2.62098e-08
0.0267021
6.31984e-08
0.0267021
-2.59594e-08
-6.34231e-08
0.0278293
2.60102e-08
0.0278293
6.04246e-08
0.0278293
-2.57764e-08
-6.06344e-08
0.0289799
2.68114e-08
0.0289799
5.98014e-08
0.0289799
-2.65611e-08
-6.00271e-08
0.0301561
2.75086e-08
0.0301561
6.18666e-08
0.0301561
-2.72719e-08
-6.20798e-08
0.0313593
2.91626e-08
0.0313593
6.59795e-08
0.0313593
-2.89152e-08
-6.6203e-08
0.032591
3.36891e-08
0.032591
6.99612e-08
0.032591
-3.34501e-08
-7.01765e-08
0.0338521
4.08329e-08
0.0338521
6.90603e-08
0.0338521
-4.05904e-08
-6.92795e-08
0.0351434
4.4019e-08
0.0351435
5.68363e-08
0.0351435
-4.37764e-08
-5.70547e-08
0.0364655
2.90796e-08
0.0364655
3.0187e-08
0.0364655
-2.88482e-08
-3.03963e-08
0.037819
-1.48677e-08
0.0378191
-4.76977e-09
0.037819
1.51073e-08
4.55425e-09
0.0392057
-6.04529e-08
0.0392057
-3.72027e-08
0.0392057
6.06649e-08
3.70112e-08
0.0406274
-8.10345e-08
0.0406274
-5.95597e-08
0.0406274
8.12599e-08
5.93577e-08
0.0420856
-8.65722e-08
0.0420856
-7.32089e-08
0.0420856
8.67627e-08
7.3037e-08
0.0435814
-8.54666e-08
0.0435814
-8.15316e-08
0.0435814
8.56703e-08
8.13495e-08
0.0451159
-7.64441e-08
0.0451159
-8.23608e-08
0.0451159
7.66128e-08
8.22083e-08
0.0466899
-6.48287e-08
0.0466899
-7.8154e-08
0.0466899
6.50036e-08
7.79985e-08
0.0483045
-5.83443e-08
0.0483045
-7.29394e-08
0.0483045
5.84996e-08
7.27984e-08
0.0499603
-5.53613e-08
0.0499603
-6.66445e-08
0.0499603
5.55128e-08
6.65098e-08
0.0516582
-5.3229e-08
0.0516581
-5.91144e-08
0.0516582
5.33795e-08
5.89762e-08
0.0533987
-5.06546e-08
0.0533987
-5.19756e-08
0.0533987
5.0792e-08
5.18523e-08
0.0551826
-4.70435e-08
0.0551826
-4.59543e-08
0.0551826
4.71913e-08
4.5817e-08
0.0570102
-4.25772e-08
0.0570102
-4.09028e-08
0.0570102
4.27068e-08
4.07847e-08
0.058882
-3.76995e-08
0.058882
-3.6476e-08
0.058882
3.78407e-08
3.63436e-08
0.0607981
-3.27177e-08
0.0607981
-3.2037e-08
0.0607981
3.28407e-08
3.19228e-08
0.0627588
-2.77586e-08
0.0627588
-2.75117e-08
0.0627588
2.78832e-08
2.73941e-08
0.0647639
-2.30144e-08
0.0647639
-2.32086e-08
0.0647639
2.31228e-08
2.31068e-08
0.0668133
-1.85497e-08
0.0668133
-1.91471e-08
0.0668133
1.86497e-08
1.90523e-08
0.0689066
-1.45389e-08
0.0689066
-1.55888e-08
0.0689066
1.46243e-08
1.55078e-08
0.0710431
-1.10718e-08
0.0710431
-1.2817e-08
0.0710431
1.11443e-08
1.27477e-08
0.073222
-8.08992e-09
0.073222
-1.0483e-08
0.073222
8.14785e-09
1.04274e-08
0.075442
-5.63257e-09
0.075442
-7.78053e-09
0.075442
5.67568e-09
7.73868e-09
0.0777015
-3.90248e-09
0.0777015
-4.9071e-09
0.0777015
3.92919e-09
4.88083e-09
0.0799984
-2.47812e-09
0.0799984
-2.03695e-09
0.0799984
2.48909e-09
2.02598e-09
0.0823299
0.0823299
0.0823299
)
;

boundaryField
{
    inlet
    {
        type            cyclic;
        value           nonuniform List<scalar> 
50
(
-0.0823299
-0.0799984
-0.0777015
-0.075442
-0.073222
-0.0710431
-0.0689066
-0.0668133
-0.0647639
-0.0627588
-0.0607981
-0.058882
-0.0570102
-0.0551826
-0.0533987
-0.0516582
-0.0499603
-0.0483045
-0.0466899
-0.0451159
-0.0435814
-0.0420856
-0.0406274
-0.0392056
-0.037819
-0.0364655
-0.0351434
-0.0338521
-0.032591
-0.0313593
-0.0301561
-0.0289799
-0.0278293
-0.0267021
-0.0255959
-0.0245078
-0.0234344
-0.0223718
-0.0213155
-0.0202595
-0.0191962
-0.0181149
-0.0169999
-0.0158262
-0.0145531
-0.0131116
-0.0113762
-0.00910484
-0.00590015
-0.00195442
)
;
    }
    outlet
    {
        type            cyclic;
        value           nonuniform List<scalar> 
50
(
0.0823299
0.0799984
0.0777015
0.075442
0.073222
0.0710431
0.0689066
0.0668133
0.0647639
0.0627588
0.0607981
0.058882
0.0570102
0.0551826
0.0533987
0.0516582
0.0499603
0.0483045
0.0466899
0.0451159
0.0435814
0.0420856
0.0406274
0.0392056
0.037819
0.0364655
0.0351434
0.0338521
0.032591
0.0313593
0.0301561
0.0289799
0.0278293
0.0267021
0.0255959
0.0245078
0.0234344
0.0223718
0.0213155
0.0202595
0.0191962
0.0181149
0.0169999
0.0158262
0.0145531
0.0131116
0.0113762
0.00910484
0.00590015
0.00195442
)
;
    }
    fixedWalls-bottom
    {
        type            calculated;
        value           uniform 0;
    }
    fixedWalls-top
    {
        type            symmetry;
        value           uniform 0;
    }
    frontAndBack
    {
        type            empty;
        value           nonuniform List<scalar> 0();
    }
}


// ************************************************************************* //
