/*--------------------------------*- C++ -*----------------------------------*\
  =========                 |
  \\      /  F ield         | OpenFOAM: The Open Source CFD Toolbox
   \\    /   O peration     | Website:  https://openfoam.org
    \\  /    A nd           | Version:  10
     \\/     M anipulation  |
\*---------------------------------------------------------------------------*/
FoamFile
{
    format      ascii;
    class       volSymmTensorField;
    location    "522";
    object      R;
}
// * * * * * * * * * * * * * * * * * * * * * * * * * * * * * * * * * * * * * //

dimensions      [0 2 -2 0 0 0 0];

internalField   nonuniform List<symmTensor> 
200
(
(2.13538e-05 -1.53491e-06 -0 2.13538e-05 -0 2.13538e-05)
(2.1353e-05 -1.53485e-06 -0 2.1353e-05 -0 2.1353e-05)
(2.13519e-05 -1.53477e-06 -0 2.13519e-05 -0 2.13519e-05)
(2.13519e-05 -1.53476e-06 -0 2.13519e-05 -0 2.13519e-05)
(0.000609775 -0.000186261 -0 0.000609775 -0 0.000609775)
(0.000609753 -0.000186253 -0 0.000609753 -0 0.000609753)
(0.000609724 -0.000186244 -0 0.000609724 -0 0.000609724)
(0.000609724 -0.000186244 -0 0.000609724 -0 0.000609724)
(0.00259622 -0.00118228 -0 0.00259622 -0 0.00259622)
(0.00259615 -0.00118222 -0 0.00259615 -0 0.00259615)
(0.00259605 -0.00118218 -0 0.00259605 -0 0.00259605)
(0.00259605 -0.00118218 -0 0.00259605 -0 0.00259605)
(0.00385029 -0.00179086 -0 0.00385029 -0 0.00385029)
(0.00385024 -0.00179084 -0 0.00385024 -0 0.00385024)
(0.00385013 -0.00179079 -0 0.00385013 -0 0.00385013)
(0.00385013 -0.00179079 -0 0.00385013 -0 0.00385013)
(0.00447653 -0.00208168 -0 0.00447653 -0 0.00447653)
(0.0044765 -0.00208167 -0 0.0044765 -0 0.0044765)
(0.0044764 -0.00208162 -0 0.0044764 -0 0.0044764)
(0.0044764 -0.00208162 -0 0.0044764 -0 0.0044764)
(0.00479545 -0.00222989 -0 0.00479545 -0 0.00479545)
(0.00479543 -0.00222988 -0 0.00479543 -0 0.00479543)
(0.00479535 -0.00222984 -0 0.00479535 -0 0.00479535)
(0.00479535 -0.00222984 -0 0.00479535 -0 0.00479535)
(0.00496168 -0.00230718 -0 0.00496168 -0 0.00496168)
(0.00496167 -0.00230718 -0 0.00496167 -0 0.00496167)
(0.00496161 -0.00230715 -0 0.00496161 -0 0.00496161)
(0.00496162 -0.00230715 -0 0.00496162 -0 0.00496162)
(0.00504633 -0.00234654 -0 0.00504632 -0 0.00504632)
(0.00504632 -0.00234654 -0 0.00504632 -0 0.00504632)
(0.00504627 -0.00234652 -0 0.00504628 -0 0.00504628)
(0.00504629 -0.00234653 -0 0.0050463 -0 0.0050463)
(0.00508332 -0.00236138 -0 0.00508332 -0 0.00508332)
(0.00508332 -0.00236138 -0 0.00508332 -0 0.00508332)
(0.00508329 -0.00236138 -0 0.0050833 -0 0.00508329)
(0.00508332 -0.00236142 -0 0.00508332 -0 0.00508332)
(0.00509009 -0.00236307 -0 0.00509009 -0 0.00509009)
(0.00509009 -0.00236309 -0 0.00509009 -0 0.00509009)
(0.00509008 -0.00236309 -0 0.00509008 -0 0.00509008)
(0.0050901 -0.00236314 -0 0.00509011 -0 0.00509011)
(0.00507604 -0.00235656 -0 0.00507604 -0 0.00507604)
(0.00507603 -0.00235659 -0 0.00507602 -0 0.00507603)
(0.00507604 -0.0023566 -0 0.00507604 -0 0.00507604)
(0.00507606 -0.00235666 -0 0.00507606 -0 0.00507606)
(0.00504676 -0.00234334 -0 0.00504676 -0 0.00504676)
(0.00504674 -0.00234338 -0 0.00504674 -0 0.00504674)
(0.00504677 -0.0023434 -0 0.00504677 -0 0.00504677)
(0.00504678 -0.00234346 -0 0.00504678 -0 0.00504678)
(0.0050059 -0.00232497 -0 0.0050059 -0 0.0050059)
(0.00500588 -0.00232502 -0 0.00500588 -0 0.00500588)
(0.00500592 -0.00232504 -0 0.00500592 -0 0.00500592)
(0.00500593 -0.0023251 -0 0.00500593 -0 0.00500593)
(0.00495595 -0.00230249 -0 0.00495596 -0 0.00495595)
(0.00495593 -0.00230253 -0 0.00495593 -0 0.00495593)
(0.00495597 -0.00230255 -0 0.00495597 -0 0.00495597)
(0.00495598 -0.0023026 -0 0.00495599 -0 0.00495599)
(0.00489865 -0.00227678 -0 0.00489865 -0 0.00489865)
(0.00489863 -0.00227681 -0 0.00489863 -0 0.00489863)
(0.00489867 -0.00227683 -0 0.00489866 -0 0.00489867)
(0.00489868 -0.00227692 -0 0.00489868 -0 0.00489868)
(0.00483521 -0.00224837 -0 0.00483521 -0 0.00483521)
(0.00483519 -0.00224836 -0 0.00483519 -0 0.00483519)
(0.00483522 -0.00224838 -0 0.00483522 -0 0.00483522)
(0.00483523 -0.00224838 -0 0.00483523 -0 0.00483523)
(0.00476643 -0.00221639 -0 0.00476643 -0 0.00476643)
(0.00476641 -0.00221638 -0 0.00476641 -0 0.00476641)
(0.00476643 -0.00221639 -0 0.00476643 -0 0.00476643)
(0.00476643 -0.00221639 -0 0.00476643 -0 0.00476643)
(0.00469281 -0.00218216 -0 0.00469281 -0 0.00469281)
(0.00469279 -0.00218215 -0 0.00469279 -0 0.00469279)
(0.00469281 -0.00218216 -0 0.00469281 -0 0.00469281)
(0.0046928 -0.00218215 -0 0.0046928 -0 0.0046928)
(0.00461468 -0.00214583 -0 0.00461468 -0 0.00461468)
(0.00461467 -0.00214582 -0 0.00461467 -0 0.00461467)
(0.00461468 -0.00214583 -0 0.00461468 -0 0.00461468)
(0.00461466 -0.00214582 -0 0.00461466 -0 0.00461466)
(0.00453229 -0.00210751 -0 0.00453229 -0 0.00453229)
(0.00453226 -0.0021075 -0 0.00453226 -0 0.00453226)
(0.00453228 -0.00210751 -0 0.00453228 -0 0.00453228)
(0.00453224 -0.00210749 -0 0.00453224 -0 0.00453224)
(0.00444583 -0.00206731 -0 0.00444583 -0 0.00444583)
(0.0044458 -0.0020673 -0 0.0044458 -0 0.0044458)
(0.00444582 -0.00206731 -0 0.00444583 -0 0.00444582)
(0.00444576 -0.00206728 -0 0.00444576 -0 0.00444576)
(0.00435557 -0.00202534 -0 0.00435557 -0 0.00435557)
(0.00435555 -0.00202533 -0 0.00435555 -0 0.00435555)
(0.00435556 -0.00202534 -0 0.00435557 -0 0.00435557)
(0.00435549 -0.0020253 -0 0.00435549 -0 0.00435549)
(0.00426189 -0.00198178 -0 0.00426189 -0 0.00426189)
(0.00426188 -0.00198178 -0 0.00426188 -0 0.00426188)
(0.00426189 -0.00198178 -0 0.00426189 -0 0.00426189)
(0.00426181 -0.00198174 -0 0.00426181 -0 0.00426181)
(0.00416531 -0.00193687 -0 0.00416531 -0 0.00416531)
(0.00416531 -0.00193687 -0 0.00416532 -0 0.00416532)
(0.00416532 -0.00193688 -0 0.00416532 -0 0.00416532)
(0.00416524 -0.00193683 -0 0.00416523 -0 0.00416523)
(0.00406647 -0.00189091 -0 0.00406649 -0 0.00406648)
(0.00406648 -0.00189092 -0 0.0040665 -0 0.00406649)
(0.0040665 -0.00189092 -0 0.00406649 -0 0.0040665)
(0.00406642 -0.00189088 -0 0.00406639 -0 0.00406641)
(0.00396598 -0.00184419 -0 0.00396602 -0 0.003966)
(0.003966 -0.0018442 -0 0.00396604 -0 0.00396602)
(0.00396603 -0.00184419 -0 0.00396599 -0 0.00396601)
(0.00396595 -0.00184416 -0 0.00396592 -0 0.00396593)
(0.00386413 -0.00179326 -0 0.00386417 -0 0.00386415)
(0.00386417 -0.00179325 -0 0.0038642 -0 0.00386419)
(0.00386416 -0.00179311 -0 0.00386412 -0 0.00386414)
(0.00386408 -0.00179261 -0 0.00386405 -0 0.00386407)
(0.00376099 -0.00173977 -0 0.00376101 -0 0.003761)
(0.00376103 -0.00173969 -0 0.00376106 -0 0.00376104)
(0.00376099 -0.00173958 -0 0.00376097 -0 0.00376098)
(0.0037609 -0.00173907 -0 0.00376088 -0 0.00376089)
(0.00365671 -0.00168548 -0 0.00365671 -0 0.00365671)
(0.00365675 -0.0016852 -0 0.00365676 -0 0.00365675)
(0.00365669 -0.0016852 -0 0.00365669 -0 0.00365669)
(0.00365659 -0.0016846 -0 0.00365658 -0 0.00365658)
(0.00355154 -0.00162923 -0 0.00355153 -0 0.00355154)
(0.00355157 -0.00162899 -0 0.00355158 -0 0.00355157)
(0.00355152 -0.00162898 -0 0.00355152 -0 0.00355152)
(0.0035514 -0.00162833 -0 0.00355139 -0 0.0035514)
(0.00344575 -0.00157103 -0 0.00344574 -0 0.00344575)
(0.00344579 -0.00157098 -0 0.00344579 -0 0.00344579)
(0.00344573 -0.00157082 -0 0.00344573 -0 0.00344573)
(0.00344561 -0.00157023 -0 0.00344561 -0 0.00344561)
(0.00333967 -0.00151106 -0 0.00333966 -0 0.00333966)
(0.00333971 -0.00151086 -0 0.00333971 -0 0.00333971)
(0.00333964 -0.00151085 -0 0.00333965 -0 0.00333965)
(0.00333953 -0.00151023 -0 0.00333954 -0 0.00333953)
(0.00323363 -0.0014491 -0 0.00323362 -0 0.00323363)
(0.00323366 -0.00144892 -0 0.00323366 -0 0.00323366)
(0.00323361 -0.00144892 -0 0.00323361 -0 0.00323361)
(0.0032335 -0.00144829 -0 0.00323351 -0 0.0032335)
(0.00312802 -0.00138526 -0 0.00312802 -0 0.00312802)
(0.00312802 -0.00138496 -0 0.00312802 -0 0.00312802)
(0.00312801 -0.0013851 -0 0.00312801 -0 0.00312801)
(0.0031279 -0.00138436 -0 0.00312791 -0 0.0031279)
(0.00302324 -0.00131931 -0 0.00302324 -0 0.00302324)
(0.00302325 -0.00131903 -0 0.00302324 -0 0.00302324)
(0.00302325 -0.00131915 -0 0.00302326 -0 0.00302326)
(0.00302314 -0.00131847 -0 0.00302315 -0 0.00302315)
(0.00291979 -0.00125133 -0 0.00291978 -0 0.00291978)
(0.00291979 -0.00125105 -0 0.00291978 -0 0.00291978)
(0.0029198 -0.00125117 -0 0.00291981 -0 0.00291981)
(0.00291969 -0.00125053 -0 0.0029197 -0 0.0029197)
(0.00281814 -0.00118125 -0 0.00281814 -0 0.00281814)
(0.00281814 -0.00118097 -0 0.00281813 -0 0.00281814)
(0.00281816 -0.00118109 -0 0.00281816 -0 0.00281816)
(0.00281806 -0.00118049 -0 0.00281806 -0 0.00281806)
(0.00271886 -0.00110901 -0 0.00271885 -0 0.00271886)
(0.00271885 -0.00110875 -0 0.00271885 -0 0.00271885)
(0.00271887 -0.00110886 -0 0.00271888 -0 0.00271888)
(0.00271878 -0.0011083 -0 0.00271878 -0 0.00271878)
(0.00262253 -0.00103457 -0 0.00262252 -0 0.00262252)
(0.00262252 -0.00103433 -0 0.00262252 -0 0.00262252)
(0.00262254 -0.00103443 -0 0.00262255 -0 0.00262254)
(0.00262245 -0.00103391 -0 0.00262246 -0 0.00262245)
(0.00252978 -0.000957871 -0 0.00252978 -0 0.00252978)
(0.00252977 -0.000957647 -0 0.00252977 -0 0.00252977)
(0.0025298 -0.000957743 -0 0.0025298 -0 0.0025298)
(0.00252971 -0.000957266 -0 0.00252971 -0 0.00252971)
(0.0024413 -0.000878854 -0 0.0024413 -0 0.0024413)
(0.0024413 -0.000878646 -0 0.00244129 -0 0.00244129)
(0.00244132 -0.000878739 -0 0.00244133 -0 0.00244132)
(0.00244124 -0.000878304 -0 0.00244124 -0 0.00244124)
(0.00235781 -0.000797459 -0 0.00235781 -0 0.00235781)
(0.00235781 -0.000797267 -0 0.0023578 -0 0.00235781)
(0.00235783 -0.000797355 -0 0.00235783 -0 0.00235783)
(0.00235775 -0.000796962 -0 0.00235775 -0 0.00235775)
(0.00228008 -0.000713621 -0 0.00228007 -0 0.00228007)
(0.00228007 -0.000713443 -0 0.00228006 -0 0.00228006)
(0.00228009 -0.000713527 -0 0.00228009 -0 0.00228009)
(0.00228002 -0.000713175 -0 0.00228002 -0 0.00228002)
(0.00220888 -0.00062727 -0 0.00220888 -0 0.00220888)
(0.00220887 -0.000627107 -0 0.00220887 -0 0.00220887)
(0.00220889 -0.000627187 -0 0.00220889 -0 0.00220889)
(0.00220883 -0.000626874 -0 0.00220883 -0 0.00220883)
(0.00214506 -0.000538335 -0 0.00214506 -0 0.00214506)
(0.00214505 -0.000538188 -0 0.00214505 -0 0.00214505)
(0.00214507 -0.000538265 -0 0.00214507 -0 0.00214507)
(0.00214501 -0.000537989 -0 0.00214501 -0 0.00214501)
(0.00208949 -0.000446742 -0 0.00208948 -0 0.00208948)
(0.00208947 -0.000446613 -0 0.00208947 -0 0.00208947)
(0.00208949 -0.000446684 -0 0.00208949 -0 0.00208949)
(0.00208944 -0.000446451 -0 0.00208944 -0 0.00208944)
(0.00204304 -0.000352416 -0 0.00204304 -0 0.00204304)
(0.00204303 -0.00035231 -0 0.00204303 -0 0.00204303)
(0.00204305 -0.000352374 -0 0.00204305 -0 0.00204305)
(0.002043 -0.000352186 -0 0.002043 -0 0.002043)
(0.00200667 -0.000255285 -0 0.00200667 -0 0.00200667)
(0.00200666 -0.000255208 -0 0.00200666 -0 0.00200666)
(0.00200668 -0.000255251 -0 0.00200669 -0 0.00200669)
(0.00200663 -0.000255125 -0 0.00200663 -0 0.00200663)
(0.00198135 -0.000155265 -0 0.00198135 -0 0.00198135)
(0.00198134 -0.000155239 -0 0.00198134 -0 0.00198134)
(0.00198136 -0.000155248 -0 0.00198137 -0 0.00198137)
(0.00198131 -0.000155188 -0 0.00198132 -0 0.00198132)
(0.00196812 -5.22734e-05 -0 0.00196812 -0 0.00196812)
(0.00196811 -5.22573e-05 -0 0.00196811 -0 0.00196811)
(0.00196813 -5.22621e-05 -0 0.00196813 -0 0.00196813)
(0.00196809 -5.22414e-05 -0 0.00196809 -0 0.00196809)
)
;

boundaryField
{
    inlet
    {
        type            cyclic;
    }
    outlet
    {
        type            cyclic;
    }
    fixedWalls-bottom
    {
        type            kqRWallFunction;
        value           nonuniform List<symmTensor> 4((2.13538e-05 -0 -0 2.13538e-05 -0 2.13538e-05) (2.1353e-05 -0 -0 2.1353e-05 -0 2.1353e-05) (2.13519e-05 -0 -0 2.13519e-05 -0 2.13519e-05) (2.13519e-05 -0 -0 2.13519e-05 -0 2.13519e-05));
    }
    fixedWalls-top
    {
        type            symmetry;
    }
    frontAndBack
    {
        type            empty;
    }
}


// ************************************************************************* //
