/*--------------------------------*- C++ -*----------------------------------*\
  =========                 |
  \\      /  F ield         | OpenFOAM: The Open Source CFD Toolbox
   \\    /   O peration     | Website:  https://openfoam.org
    \\  /    A nd           | Version:  10
     \\/     M anipulation  |
\*---------------------------------------------------------------------------*/
FoamFile
{
    format      ascii;
    class       volVectorField;
    location    "522";
    object      U;
}
// * * * * * * * * * * * * * * * * * * * * * * * * * * * * * * * * * * * * * //

dimensions      [0 1 -1 0 0 0 0];

internalField   nonuniform List<vector> 
200
(
(0.106072 -1.11739e-09 0)
(0.106072 4.40953e-09 0)
(0.106071 1.44566e-09 0)
(0.106071 -4.45706e-09 0)
(0.311285 -1.82824e-08 0)
(0.311285 1.97994e-08 0)
(0.311283 1.83208e-08 0)
(0.311283 -1.98394e-08 0)
(0.46696 -3.33394e-08 0)
(0.46696 2.37965e-08 0)
(0.466959 3.36199e-08 0)
(0.466958 -2.39323e-08 0)
(0.567174 -3.99807e-08 0)
(0.567174 2.88486e-08 0)
(0.567174 4.02433e-08 0)
(0.567174 -2.90235e-08 0)
(0.63546 -3.75081e-08 0)
(0.635459 2.88194e-08 0)
(0.63546 3.7785e-08 0)
(0.63546 -2.90102e-08 0)
(0.685648 -2.9867e-08 0)
(0.685648 3.12267e-08 0)
(0.685648 3.01497e-08 0)
(0.685649 -3.14282e-08 0)
(0.72483 -1.89981e-08 0)
(0.724829 3.71973e-08 0)
(0.724829 1.92816e-08 0)
(0.72483 -3.74069e-08 0)
(0.756864 -5.57342e-09 0)
(0.756863 4.5236e-08 0)
(0.756863 5.85224e-09 0)
(0.756865 -4.5449e-08 0)
(0.784007 7.67646e-09 0)
(0.784006 5.30901e-08 0)
(0.784006 -7.40132e-09 0)
(0.784008 -5.33077e-08 0)
(0.80763 2.09975e-08 0)
(0.80763 5.93587e-08 0)
(0.80763 -2.07284e-08 0)
(0.807631 -5.95766e-08 0)
(0.82859 3.13986e-08 0)
(0.82859 6.35965e-08 0)
(0.82859 -3.1134e-08 0)
(0.828591 -6.38166e-08 0)
(0.847459 3.91853e-08 0)
(0.847459 6.64449e-08 0)
(0.847459 -3.89275e-08 0)
(0.847459 -6.66634e-08 0)
(0.864645 4.38658e-08 0)
(0.864645 6.83901e-08 0)
(0.864645 -4.36113e-08 0)
(0.864645 -6.86098e-08 0)
(0.880448 4.4367e-08 0)
(0.880448 6.96298e-08 0)
(0.880448 -4.41175e-08 0)
(0.880448 -6.98478e-08 0)
(0.895093 3.93352e-08 0)
(0.895093 6.97558e-08 0)
(0.895093 -3.90872e-08 0)
(0.895092 -6.99746e-08 0)
(0.908756 3.35784e-08 0)
(0.908756 6.77627e-08 0)
(0.908756 -3.33333e-08 0)
(0.908756 -6.79804e-08 0)
(0.921584 2.77254e-08 0)
(0.921584 6.48783e-08 0)
(0.921584 -2.74814e-08 0)
(0.921584 -6.5096e-08 0)
(0.933695 2.56367e-08 0)
(0.933695 6.15389e-08 0)
(0.933695 -2.53943e-08 0)
(0.933695 -6.1756e-08 0)
(0.945177 2.59799e-08 0)
(0.945177 5.96837e-08 0)
(0.945177 -2.57376e-08 0)
(0.945177 -5.99013e-08 0)
(0.9561 2.67668e-08 0)
(0.9561 6.04653e-08 0)
(0.956099 -2.65232e-08 0)
(0.9561 -6.06848e-08 0)
(0.966514 2.80364e-08 0)
(0.966513 6.39667e-08 0)
(0.966513 -2.77947e-08 0)
(0.966513 -6.41851e-08 0)
(0.976455 3.16853e-08 0)
(0.976455 6.88806e-08 0)
(0.976455 -3.14425e-08 0)
(0.976455 -6.91004e-08 0)
(0.985948 3.89353e-08 0)
(0.985948 7.1352e-08 0)
(0.985948 -3.8695e-08 0)
(0.985948 -7.15696e-08 0)
(0.995005 4.52461e-08 0)
(0.995005 6.52371e-08 0)
(0.995005 -4.5004e-08 0)
(0.995005 -6.54553e-08 0)
(1.00364 3.702e-08 0)
(1.00364 4.56162e-08 0)
(1.00364 -3.6783e-08 0)
(1.00363 -4.58286e-08 0)
(1.01185 3.51764e-09 0)
(1.01185 1.41685e-08 0)
(1.01185 -3.28191e-09 0)
(1.01185 -1.43833e-08 0)
(1.01969 -3.30671e-08 0)
(1.01969 -2.20876e-08 0)
(1.01969 3.32928e-08 0)
(1.01969 2.18821e-08 0)
(1.02719 -7.15976e-08 0)
(1.02719 -5.03126e-08 0)
(1.02719 7.18164e-08 0)
(1.02719 5.01177e-08 0)
(1.03438 -8.81473e-08 0)
(1.03438 -6.9994e-08 0)
(1.03438 8.8356e-08 0)
(1.03438 6.98082e-08 0)
(1.04126 -8.81712e-08 0)
(1.04126 -7.93999e-08 0)
(1.04126 8.83689e-08 0)
(1.04126 7.92231e-08 0)
(1.04786 -7.98382e-08 0)
(1.04786 -8.26199e-08 0)
(1.04786 8.0025e-08 0)
(1.04786 8.24526e-08 0)
(1.05417 -7.15319e-08 0)
(1.05416 -8.13359e-08 0)
(1.05417 7.17044e-08 0)
(1.05417 8.1182e-08 0)
(1.0602 -6.15554e-08 0)
(1.06019 -7.59867e-08 0)
(1.0602 6.1721e-08 0)
(1.06019 7.58384e-08 0)
(1.06595 -5.59781e-08 0)
(1.06595 -6.94538e-08 0)
(1.06595 5.61318e-08 0)
(1.06595 6.93158e-08 0)
(1.07143 -5.38143e-08 0)
(1.07143 -6.2794e-08 0)
(1.07143 5.39653e-08 0)
(1.07143 6.26575e-08 0)
(1.07664 -5.19194e-08 0)
(1.07664 -5.56171e-08 0)
(1.07663 5.20629e-08 0)
(1.07664 5.54862e-08 0)
(1.08157 -4.90065e-08 0)
(1.08157 -4.89083e-08 0)
(1.08157 4.91481e-08 0)
(1.08157 4.87779e-08 0)
(1.08622 -4.49895e-08 0)
(1.08622 -4.34041e-08 0)
(1.08622 4.51271e-08 0)
(1.08622 4.32762e-08 0)
(1.09058 -4.02299e-08 0)
(1.09058 -3.86427e-08 0)
(1.09058 4.03643e-08 0)
(1.09058 3.85176e-08 0)
(1.09466 -3.51615e-08 0)
(1.09466 -3.4086e-08 0)
(1.09466 3.52933e-08 0)
(1.09466 3.3963e-08 0)
(1.09844 -3.01325e-08 0)
(1.09844 -2.95836e-08 0)
(1.09844 3.02568e-08 0)
(1.09844 2.94684e-08 0)
(1.10192 -2.52614e-08 0)
(1.10192 -2.51632e-08 0)
(1.10192 2.53788e-08 0)
(1.10192 2.50537e-08 0)
(1.10508 -2.06684e-08 0)
(1.10508 -2.10222e-08 0)
(1.10508 2.07728e-08 0)
(1.10508 2.09236e-08 0)
(1.10791 -1.64779e-08 0)
(1.10791 -1.73856e-08 0)
(1.10791 1.65703e-08 0)
(1.10791 1.72966e-08 0)
(1.11039 -1.27027e-08 0)
(1.11039 -1.43043e-08 0)
(1.11039 1.27809e-08 0)
(1.11039 1.42278e-08 0)
(1.11252 -9.42078e-09 0)
(1.11252 -1.1604e-08 0)
(1.11252 9.48584e-09 0)
(1.11252 1.15405e-08 0)
(1.11428 -6.69007e-09 0)
(1.11428 -8.84157e-09 0)
(1.11428 6.7414e-09 0)
(1.11428 8.79305e-09 0)
(1.11564 -4.84279e-09 0)
(1.11564 -6.19437e-09 0)
(1.11564 4.87961e-09 0)
(1.11564 6.16127e-09 0)
(1.11658 -3.28251e-09 0)
(1.11658 -3.64819e-09 0)
(1.11658 3.29891e-09 0)
(1.11658 3.63195e-09 0)
(1.11706 -1.51119e-09 0)
(1.11706 -6.96536e-10 0)
(1.11706 1.52143e-09 0)
(1.11706 6.90356e-10 0)
)
;

boundaryField
{
    inlet
    {
        type            cyclic;
    }
    outlet
    {
        type            cyclic;
    }
    fixedWalls-bottom
    {
        type            noSlip;
    }
    fixedWalls-top
    {
        type            symmetry;
    }
    frontAndBack
    {
        type            empty;
    }
}


// ************************************************************************* //
