/*--------------------------------*- C++ -*----------------------------------*\
  =========                 |
  \\      /  F ield         | OpenFOAM: The Open Source CFD Toolbox
   \\    /   O peration     | Website:  https://openfoam.org
    \\  /    A nd           | Version:  10
     \\/     M anipulation  |
\*---------------------------------------------------------------------------*/
FoamFile
{
    format      ascii;
    class       volScalarField;
    location    "4993";
    object      nut;
}
// * * * * * * * * * * * * * * * * * * * * * * * * * * * * * * * * * * * * * //

dimensions      [0 2 -1 0 0 0 0];

internalField   nonuniform List<scalar> 
400
(
1.42035e-09
1.42042e-09
1.42031e-09
1.42032e-09
2.4517e-07
2.45182e-07
2.45164e-07
2.45166e-07
4.61224e-06
4.61252e-06
4.6122e-06
4.61223e-06
2.5735e-05
2.57365e-05
2.57347e-05
2.57348e-05
6.98126e-05
6.98138e-05
6.98084e-05
6.98091e-05
0.000128219
0.000128217
0.000128209
0.000128209
0.000193345
0.00019334
0.000193329
0.000193329
0.000265894
0.000265887
0.000265872
0.000265873
0.000344557
0.000344547
0.000344532
0.000344534
0.000428004
0.000427993
0.000427978
0.000427984
0.000515156
0.000515143
0.000515129
0.000515142
0.000605145
0.00060513
0.000605119
0.00060514
0.000697318
0.0006973
0.000697291
0.000697322
0.000791198
0.000791175
0.000791167
0.000791205
0.000886445
0.000886417
0.000886406
0.00088645
0.000982827
0.000982792
0.000982772
0.00098282
0.00108018
0.00108013
0.0010801
0.00108016
0.00117838
0.00117831
0.00117828
0.00117835
0.00127725
0.00127718
0.00127719
0.0012773
0.00137654
0.00137655
0.00137668
0.00137688
0.00147719
0.0014772
0.00147735
0.0014775
0.00157927
0.00157929
0.00157945
0.00157955
0.00168225
0.0016822
0.00168222
0.00168226
0.00178583
0.00178578
0.00178574
0.00178574
0.00189011
0.0018901
0.00189005
0.00189001
0.00199518
0.00199519
0.00199516
0.0019951
0.00210104
0.00210107
0.00210107
0.002101
0.00220769
0.00220772
0.00220774
0.00220767
0.00231508
0.00231511
0.00231514
0.00231507
0.00242316
0.00242319
0.00242323
0.00242316
0.00253185
0.00253187
0.00253191
0.00253184
0.00264104
0.00264106
0.0026411
0.00264102
0.00275063
0.00275065
0.00275069
0.0027506
0.00286047
0.0028605
0.00286054
0.00286044
0.00297042
0.00297046
0.0029705
0.00297039
0.00308032
0.00308037
0.00308041
0.00308029
0.00319001
0.00319007
0.00319011
0.00318998
0.00329936
0.00329942
0.00329946
0.00329933
0.00340826
0.00340833
0.00340837
0.00340824
0.0035167
0.00351677
0.00351683
0.00351669
0.0036248
0.00362489
0.00362495
0.0036248
0.00373288
0.00373297
0.00373304
0.00373287
0.00384149
0.0038416
0.00384167
0.00384147
0.00395154
0.00395166
0.0039517
0.00395148
0.00406425
0.00406435
0.00406435
0.00406414
0.00418115
0.00418119
0.00418112
0.00418099
0.00430386
0.00430378
0.00430363
0.00430372
0.00443371
0.00443345
0.00443328
0.00443373
0.00457099
0.00457057
0.00457046
0.00457142
0.00471388
0.0047134
0.00471346
0.00471488
0.00485673
0.00485641
0.00485667
0.00485814
0.00498805
0.00498801
0.00498828
0.00498871
0.00508812
0.00508811
0.00508782
0.00508515
0.00518084
0.00518071
0.00518044
0.00517786
0.00526996
0.00527003
0.00526965
0.00526719
0.00535571
0.00535583
0.00535534
0.00535304
0.00543779
0.00543788
0.00543739
0.00543521
0.00551588
0.00551596
0.00551547
0.00551341
0.00558968
0.00558973
0.00558928
0.00558733
0.00565894
0.00565895
0.00565858
0.00565673
0.00572348
0.00572339
0.00572319
0.00572142
0.00578325
0.00578303
0.00578293
0.00578126
0.00583791
0.00583781
0.0058377
0.00583619
0.00588778
0.00588762
0.00588753
0.00588621
0.00593261
0.0059326
0.00593247
0.00593135
0.00597274
0.00597275
0.00597264
0.0059717
0.00600821
0.00600822
0.00600813
0.00600737
0.00603912
0.00603914
0.00603904
0.00603847
0.00606557
0.00606561
0.00606549
0.00606512
0.00608769
0.00608775
0.00608762
0.00608743
0.00610556
0.00610567
0.00610557
0.00610548
0.00611934
0.00611944
0.0061194
0.00611942
0.00612907
0.00612918
0.00612922
0.00612937
0.0061349
0.00613497
0.00613514
0.00613544
0.00613693
0.00613711
0.00613718
0.0061378
0.00613525
0.00613579
0.00613562
0.00613657
0.00613028
0.00613088
0.00613071
0.0061319
0.00612211
0.00612272
0.00612261
0.006124
0.00611101
0.00611149
0.00611158
0.00611305
0.00609731
0.00609731
0.0060978
0.00609935
0.00608077
0.00608111
0.00608121
0.00608319
0.00606178
0.00606241
0.0060625
0.00606479
0.00604144
0.00604143
0.00604212
0.00604436
0.00601912
0.0060196
0.00601994
0.00602232
0.00599561
0.00599593
0.0059965
0.00599908
0.00597123
0.00597091
0.00597215
0.00597494
0.00594617
0.00594606
0.00594713
0.00595022
0.00592087
0.00592175
0.00592216
0.00592519
0.00589588
0.00589689
0.00589729
0.00590052
0.00587154
0.00587238
0.00587308
0.00587648
0.00584817
0.0058484
0.00584984
0.00585351
0.00582594
0.00582708
0.00582754
0.00583196
0.00580684
0.00580602
0.00580813
0.00581188
0.00578893
0.00578822
0.00579004
0.00579405
0.00577327
0.00577331
0.00577413
0.00577862
0.00576009
0.00576064
0.00576156
0.00576563
0.00574968
0.00574972
0.00575156
0.00575566
0.0057418
0.00574329
0.00574381
0.00574873
0.00573851
0.00573791
0.00574085
0.00574446
0.00573711
0.0057369
0.00573996
0.00574368
)
;

boundaryField
{
    inlet
    {
        type            cyclic;
    }
    outlet
    {
        type            cyclic;
    }
    fixedWalls-bottom
    {
        type            nutkWallFunction;
        Cmu             0.09;
        kappa           0.41;
        E               9.8;
        value           uniform 0;
    }
    fixedWalls-top
    {
        type            symmetry;
    }
    frontAndBack
    {
        type            empty;
    }
}


// ************************************************************************* //
