/*--------------------------------*- C++ -*----------------------------------*\
  =========                 |
  \\      /  F ield         | OpenFOAM: The Open Source CFD Toolbox
   \\    /   O peration     | Website:  https://openfoam.org
    \\  /    A nd           | Version:  10
     \\/     M anipulation  |
\*---------------------------------------------------------------------------*/
FoamFile
{
    format      ascii;
    class       volScalarField;
    location    "4993";
    object      omega;
}
// * * * * * * * * * * * * * * * * * * * * * * * * * * * * * * * * * * * * * //

dimensions      [0 0 -1 0 0 0 0];

internalField   nonuniform List<scalar> 
400
(
2068.53
2068.53
2068.53
2068.53
358.837
358.836
358.836
358.836
130.7
130.698
130.697
130.697
72.0942
72.0919
72.092
72.0921
48.7654
48.7644
48.7651
48.7651
36.2551
36.2555
36.2563
36.2562
28.4192
28.4205
28.4211
28.421
23.0727
23.0741
23.0744
23.0744
19.2279
19.2291
19.2292
19.2292
16.3588
16.3597
16.3597
16.3596
14.1545
14.1552
14.1552
14.1547
12.4197
12.4201
12.4199
12.4192
11.0255
11.0257
11.0254
11.0245
9.88451
9.88463
9.88429
9.88321
8.93574
8.93577
8.93537
8.93417
8.13538
8.13535
8.13489
8.13364
7.4514
7.45132
7.45084
7.44962
6.86001
6.8599
6.8594
6.85831
6.34337
6.34324
6.34274
6.34184
5.88796
5.88782
5.88732
5.88665
5.48334
5.4832
5.48269
5.48227
5.12136
5.12123
5.12072
5.12054
4.79553
4.79542
4.79494
4.79496
4.5007
4.5006
4.50019
4.50033
4.23265
4.23255
4.23222
4.23244
3.98792
3.98782
3.98758
3.98787
3.76364
3.76356
3.76342
3.76377
3.55744
3.5574
3.55734
3.55775
3.3673
3.36731
3.36729
3.36779
3.19149
3.19157
3.19155
3.19214
3.02856
3.02867
3.02868
3.02936
2.87726
2.87739
2.87743
2.87821
2.73654
2.73669
2.73675
2.73761
2.60549
2.60566
2.60574
2.60667
2.48331
2.48347
2.48357
2.48457
2.3693
2.36943
2.36955
2.37059
2.26285
2.26287
2.26305
2.26411
2.16327
2.16327
2.16349
2.16455
2.07009
2.07005
2.07035
2.07138
1.98284
1.98283
1.98312
1.98415
1.9011
1.9011
1.90139
1.90241
1.82447
1.82448
1.82475
1.82577
1.75259
1.75259
1.75284
1.75385
1.6851
1.6851
1.68532
1.6863
1.6217
1.62171
1.62187
1.62283
1.56206
1.56207
1.5622
1.56313
1.50591
1.50594
1.50604
1.50694
1.45301
1.45306
1.45316
1.45402
1.40319
1.40322
1.40333
1.40414
1.35624
1.35623
1.35635
1.35712
1.31191
1.3119
1.31201
1.31274
1.27002
1.27001
1.27011
1.27079
1.23033
1.23034
1.23043
1.23106
1.19271
1.19275
1.19282
1.1934
1.1571
1.15709
1.15718
1.15771
1.12328
1.12326
1.12337
1.12383
1.09116
1.09114
1.09125
1.09167
1.06066
1.06065
1.06075
1.06113
1.03171
1.03171
1.0318
1.03214
1.00422
1.00423
1.0043
1.00461
0.978116
0.978139
0.978177
0.978462
0.953283
0.953327
0.953349
0.953606
0.929683
0.929705
0.929728
0.92995
0.90717
0.9072
0.90722
0.907407
0.885703
0.88571
0.885734
0.885887
0.865157
0.865161
0.865182
0.865305
0.845467
0.845469
0.845488
0.845583
0.826562
0.826563
0.826581
0.826649
0.80838
0.808379
0.8084
0.808439
0.790867
0.790861
0.790883
0.7909
0.773973
0.77396
0.773978
0.773982
0.75765
0.757638
0.757648
0.757639
0.741868
0.741856
0.741855
0.741833
0.726591
0.726584
0.726566
0.726527
0.711792
0.711771
0.711765
0.711691
0.697449
0.697388
0.697408
0.6973
0.68351
0.683442
0.683463
0.68333
0.669964
0.669898
0.669911
0.669761
0.656791
0.65674
0.65673
0.656574
0.643963
0.643963
0.643912
0.643751
0.631523
0.631487
0.631477
0.631275
0.619448
0.619384
0.619375
0.619146
0.607656
0.607657
0.607587
0.607368
0.596244
0.596195
0.596162
0.595932
0.585172
0.585139
0.585083
0.584839
0.574454
0.574482
0.574363
0.574102
0.564124
0.56413
0.56403
0.563746
0.554199
0.554113
0.554075
0.553801
0.544691
0.544595
0.544558
0.54427
0.535642
0.535562
0.535498
0.535199
0.527098
0.527074
0.526944
0.526624
0.519125
0.51902
0.518979
0.518597
0.511633
0.511701
0.511515
0.511197
0.504883
0.504939
0.504781
0.504444
0.49887
0.49886
0.49879
0.498416
0.493665
0.493612
0.493533
0.493198
0.489332
0.489321
0.489165
0.48883
0.485975
0.485842
0.485798
0.485397
0.483502
0.483545
0.483298
0.483009
0.482212
0.482223
0.481967
0.481669
)
;

boundaryField
{
    inlet
    {
        type            cyclic;
    }
    outlet
    {
        type            cyclic;
    }
    fixedWalls-bottom
    {
        beta1           0.075;
        blended         0;
        type            omegaWallFunction;
        value           uniform 2068.53;
    }
    fixedWalls-top
    {
        type            symmetry;
    }
    frontAndBack
    {
        type            empty;
    }
}


// ************************************************************************* //
