/*--------------------------------*- C++ -*----------------------------------*\
  =========                 |
  \\      /  F ield         | OpenFOAM: The Open Source CFD Toolbox
   \\    /   O peration     | Website:  https://openfoam.org
    \\  /    A nd           | Version:  10
     \\/     M anipulation  |
\*---------------------------------------------------------------------------*/
FoamFile
{
    format      ascii;
    class       volSymmTensorField;
    location    "4993";
    object      R;
}
// * * * * * * * * * * * * * * * * * * * * * * * * * * * * * * * * * * * * * //

dimensions      [0 2 -2 0 0 0 0];

internalField   nonuniform List<symmTensor> 
400
(
(1.95869e-06 -3.165e-08 -0 1.95869e-06 -0 1.95869e-06)
(1.95878e-06 -3.16516e-08 -0 1.95878e-06 -0 1.95878e-06)
(1.95864e-06 -3.1649e-08 -0 1.95864e-06 -0 1.95864e-06)
(1.95865e-06 -3.1649e-08 -0 1.95865e-06 -0 1.95865e-06)
(5.86508e-05 -5.39094e-06 -0 5.86508e-05 -0 5.86508e-05)
(5.86534e-05 -5.39121e-06 -0 5.86534e-05 -0 5.86534e-05)
(5.86492e-05 -5.39077e-06 -0 5.86492e-05 -0 5.86492e-05)
(5.86495e-05 -5.39078e-06 -0 5.86495e-05 -0 5.86495e-05)
(0.00040188 -9.59524e-05 -0 0.00040188 -0 0.00040188)
(0.000401897 -9.59583e-05 -0 0.000401897 -0 0.000401897)
(0.000401868 -9.59508e-05 -0 0.000401868 -0 0.000401868)
(0.00040187 -9.59511e-05 -0 0.00040187 -0 0.00040187)
(0.0012369 -0.000465024 -0 0.0012369 -0 0.0012369)
(0.00123693 -0.000465048 -0 0.00123693 -0 0.00123693)
(0.00123684 -0.000465014 -0 0.00123684 -0 0.00123684)
(0.00123685 -0.000465017 -0 0.00123685 -0 0.00123685)
(0.00226962 -0.00101172 -0 0.00226962 -0 0.00226962)
(0.00226962 -0.00101173 -0 0.00226962 -0 0.00226962)
(0.00226948 -0.00101166 -0 0.00226948 -0 0.00226948)
(0.0022695 -0.00101167 -0 0.0022695 -0 0.0022695)
(0.0031315 -0.00145615 -0 0.0031315 -0 0.0031315)
(0.00313144 -0.00145612 -0 0.00313144 -0 0.00313144)
(0.00313127 -0.00145604 -0 0.00313127 -0 0.00313127)
(0.00313131 -0.00145606 -0 0.00313131 -0 0.00313131)
(0.00376562 -0.00175103 -0 0.00376563 -0 0.00376562)
(0.00376552 -0.00175098 -0 0.00376552 -0 0.00376552)
(0.00376534 -0.0017509 -0 0.00376534 -0 0.00376534)
(0.0037654 -0.00175092 -0 0.0037654 -0 0.0037654)
(0.00422391 -0.00196425 -0 0.00422391 -0 0.00422391)
(0.00422377 -0.00196418 -0 0.00422377 -0 0.00422377)
(0.0042236 -0.00196411 -0 0.0042236 -0 0.0042236)
(0.00422368 -0.00196414 -0 0.00422368 -0 0.00422368)
(0.00455413 -0.00211777 -0 0.00455413 -0 0.00455413)
(0.00455398 -0.0021177 -0 0.00455397 -0 0.00455398)
(0.00455383 -0.00211763 -0 0.00455383 -0 0.00455383)
(0.00455392 -0.00211767 -0 0.00455393 -0 0.00455393)
(0.00479362 -0.00222905 -0 0.00479362 -0 0.00479362)
(0.00479347 -0.00222898 -0 0.00479347 -0 0.00479347)
(0.00479334 -0.00222892 -0 0.00479334 -0 0.00479334)
(0.00479346 -0.00222898 -0 0.00479347 -0 0.00479347)
(0.00496887 -0.00231053 -0 0.00496886 -0 0.00496887)
(0.00496872 -0.00231046 -0 0.00496871 -0 0.00496872)
(0.00496861 -0.00231041 -0 0.00496861 -0 0.00496861)
(0.00496877 -0.00231048 -0 0.00496877 -0 0.00496877)
(0.00509804 -0.00237059 -0 0.00509804 -0 0.00509804)
(0.00509789 -0.00237052 -0 0.00509789 -0 0.00509789)
(0.00509782 -0.00237049 -0 0.00509782 -0 0.00509782)
(0.005098 -0.00237057 -0 0.00509801 -0 0.005098)
(0.00519358 -0.00241501 -0 0.00519358 -0 0.00519358)
(0.00519343 -0.00241495 -0 0.00519343 -0 0.00519343)
(0.00519338 -0.00241492 -0 0.00519339 -0 0.00519339)
(0.00519359 -0.00241502 -0 0.0051936 -0 0.0051936)
(0.00526407 -0.00244779 -0 0.00526407 -0 0.00526407)
(0.00526392 -0.00244772 -0 0.00526392 -0 0.00526392)
(0.0052639 -0.00244771 -0 0.0052639 -0 0.0052639)
(0.00526413 -0.00244782 -0 0.00526413 -0 0.00526413)
(0.00531554 -0.00247172 -0 0.00531553 -0 0.00531553)
(0.00531539 -0.00247165 -0 0.00531538 -0 0.00531538)
(0.00531539 -0.00247166 -0 0.00531539 -0 0.00531539)
(0.00531563 -0.00247177 -0 0.00531563 -0 0.00531563)
(0.00535228 -0.00248881 -0 0.00535227 -0 0.00535227)
(0.00535213 -0.00248874 -0 0.00535213 -0 0.00535213)
(0.00535215 -0.00248875 -0 0.00535215 -0 0.00535215)
(0.00535239 -0.00248886 -0 0.0053524 -0 0.0053524)
(0.00537741 -0.00250049 -0 0.0053774 -0 0.0053774)
(0.00537727 -0.00250043 -0 0.00537727 -0 0.00537727)
(0.0053773 -0.00250044 -0 0.00537731 -0 0.0053773)
(0.00537754 -0.00250056 -0 0.00537754 -0 0.00537754)
(0.00539323 -0.00250785 -0 0.00539321 -0 0.00539322)
(0.00539309 -0.00250779 -0 0.0053931 -0 0.0053931)
(0.00539313 -0.00250781 -0 0.00539314 -0 0.00539314)
(0.00539336 -0.00250791 -0 0.00539336 -0 0.00539336)
(0.00540145 -0.00251167 -0 0.00540144 -0 0.00540144)
(0.00540133 -0.00251162 -0 0.00540133 -0 0.00540133)
(0.00540137 -0.00251164 -0 0.00540138 -0 0.00540137)
(0.00540158 -0.00251173 -0 0.00540157 -0 0.00540157)
(0.00540336 -0.00251204 -0 0.00540335 -0 0.00540335)
(0.00540325 -0.00251209 -0 0.00540326 -0 0.00540325)
(0.00540329 -0.00251222 -0 0.0054033 -0 0.0054033)
(0.00540347 -0.00251237 -0 0.00540347 -0 0.00540347)
(0.00539995 -0.00251046 -0 0.00539995 -0 0.00539995)
(0.00539986 -0.00251049 -0 0.00539986 -0 0.00539986)
(0.0053999 -0.00251058 -0 0.0053999 -0 0.0053999)
(0.00540005 -0.00251065 -0 0.00540004 -0 0.00540005)
(0.005392 -0.00250708 -0 0.00539201 -0 0.005392)
(0.00539192 -0.00250713 -0 0.00539193 -0 0.00539193)
(0.00539198 -0.00250727 -0 0.00539197 -0 0.00539197)
(0.00539209 -0.00250732 -0 0.00539209 -0 0.00539209)
(0.00538013 -0.00250176 -0 0.00538014 -0 0.00538014)
(0.00538007 -0.00250173 -0 0.00538007 -0 0.00538007)
(0.00538013 -0.00250176 -0 0.00538011 -0 0.00538012)
(0.00538021 -0.0025018 -0 0.00538021 -0 0.00538021)
(0.00536485 -0.00249466 -0 0.00536486 -0 0.00536485)
(0.00536479 -0.00249463 -0 0.0053648 -0 0.0053648)
(0.00536485 -0.00249465 -0 0.00536484 -0 0.00536484)
(0.00536491 -0.00249468 -0 0.00536491 -0 0.00536491)
(0.00534653 -0.00248614 -0 0.00534654 -0 0.00534654)
(0.00534649 -0.00248612 -0 0.0053465 -0 0.00534649)
(0.00534654 -0.00248614 -0 0.00534654 -0 0.00534654)
(0.00534658 -0.00248616 -0 0.00534658 -0 0.00534658)
(0.00532551 -0.00247636 -0 0.00532552 -0 0.00532551)
(0.00532548 -0.00247635 -0 0.00532548 -0 0.00532548)
(0.00532553 -0.00247637 -0 0.00532552 -0 0.00532552)
(0.00532554 -0.00247637 -0 0.00532553 -0 0.00532554)
(0.00530203 -0.00246545 -0 0.00530203 -0 0.00530203)
(0.00530201 -0.00246544 -0 0.00530202 -0 0.00530201)
(0.00530205 -0.00246545 -0 0.00530205 -0 0.00530205)
(0.00530204 -0.00246545 -0 0.00530203 -0 0.00530204)
(0.00527631 -0.00245348 -0 0.00527631 -0 0.00527631)
(0.0052763 -0.00245348 -0 0.0052763 -0 0.0052763)
(0.00527633 -0.0024535 -0 0.00527634 -0 0.00527634)
(0.0052763 -0.00245348 -0 0.00527629 -0 0.0052763)
(0.00524852 -0.00244056 -0 0.00524852 -0 0.00524852)
(0.00524851 -0.00244056 -0 0.00524852 -0 0.00524852)
(0.00524855 -0.00244058 -0 0.00524855 -0 0.00524855)
(0.0052485 -0.00244055 -0 0.00524849 -0 0.00524849)
(0.0052188 -0.00242674 -0 0.0052188 -0 0.0052188)
(0.00521881 -0.00242675 -0 0.00521882 -0 0.00521881)
(0.00521885 -0.00242676 -0 0.00521885 -0 0.00521885)
(0.00521877 -0.00242673 -0 0.00521876 -0 0.00521876)
(0.00518729 -0.00241209 -0 0.00518729 -0 0.00518729)
(0.00518731 -0.0024121 -0 0.00518731 -0 0.00518731)
(0.00518734 -0.00241211 -0 0.00518734 -0 0.00518734)
(0.00518724 -0.00241207 -0 0.00518724 -0 0.00518724)
(0.00515408 -0.00239665 -0 0.00515408 -0 0.00515408)
(0.00515411 -0.00239666 -0 0.00515411 -0 0.00515411)
(0.00515414 -0.00239668 -0 0.00515414 -0 0.00515414)
(0.00515402 -0.00239662 -0 0.00515402 -0 0.00515402)
(0.00511926 -0.00238046 -0 0.00511926 -0 0.00511926)
(0.0051193 -0.00238047 -0 0.0051193 -0 0.0051193)
(0.00511933 -0.00238049 -0 0.00511933 -0 0.00511933)
(0.0051192 -0.00238043 -0 0.0051192 -0 0.0051192)
(0.00508291 -0.00236355 -0 0.00508291 -0 0.00508291)
(0.00508295 -0.00236357 -0 0.00508296 -0 0.00508296)
(0.00508299 -0.00236359 -0 0.00508299 -0 0.00508299)
(0.00508284 -0.00236352 -0 0.00508284 -0 0.00508284)
(0.00504508 -0.00234596 -0 0.00504508 -0 0.00504508)
(0.00504514 -0.00234599 -0 0.00504514 -0 0.00504514)
(0.00504517 -0.002346 -0 0.00504517 -0 0.00504517)
(0.00504501 -0.00234593 -0 0.00504501 -0 0.00504501)
(0.00500584 -0.00232771 -0 0.00500583 -0 0.00500583)
(0.0050059 -0.00232774 -0 0.0050059 -0 0.0050059)
(0.00500593 -0.00232776 -0 0.00500594 -0 0.00500593)
(0.00500577 -0.00232768 -0 0.00500577 -0 0.00500577)
(0.00496522 -0.00230882 -0 0.00496521 -0 0.00496521)
(0.00496529 -0.00230886 -0 0.00496529 -0 0.00496529)
(0.00496532 -0.00230887 -0 0.00496532 -0 0.00496532)
(0.00496515 -0.00230879 -0 0.00496515 -0 0.00496515)
(0.00492326 -0.00228932 -0 0.00492326 -0 0.00492326)
(0.00492334 -0.00228935 -0 0.00492334 -0 0.00492334)
(0.00492337 -0.00228937 -0 0.00492338 -0 0.00492338)
(0.0049232 -0.00228929 -0 0.0049232 -0 0.0049232)
(0.00488001 -0.0022692 -0 0.00488001 -0 0.00488001)
(0.00488009 -0.00226924 -0 0.00488009 -0 0.00488009)
(0.00488013 -0.00226926 -0 0.00488013 -0 0.00488013)
(0.00487995 -0.00226918 -0 0.00487995 -0 0.00487995)
(0.00483549 -0.0022485 -0 0.00483549 -0 0.00483549)
(0.00483557 -0.00224854 -0 0.00483557 -0 0.00483557)
(0.00483561 -0.00224856 -0 0.00483561 -0 0.00483561)
(0.00483543 -0.00224848 -0 0.00483543 -0 0.00483543)
(0.00478973 -0.00222722 -0 0.00478973 -0 0.00478973)
(0.00478982 -0.00222726 -0 0.00478982 -0 0.00478982)
(0.00478986 -0.00222728 -0 0.00478986 -0 0.00478986)
(0.00478968 -0.0022272 -0 0.00478968 -0 0.00478968)
(0.00474277 -0.00220539 -0 0.00474277 -0 0.00474277)
(0.00474286 -0.00220543 -0 0.00474286 -0 0.00474286)
(0.0047429 -0.00220545 -0 0.0047429 -0 0.0047429)
(0.00474273 -0.00220537 -0 0.00474273 -0 0.00474273)
(0.00469466 -0.00218302 -0 0.00469466 -0 0.00469466)
(0.00469474 -0.00218306 -0 0.00469474 -0 0.00469474)
(0.00469479 -0.00218308 -0 0.00469479 -0 0.00469479)
(0.00469462 -0.002183 -0 0.00469462 -0 0.00469462)
(0.00464545 -0.00216013 -0 0.00464545 -0 0.00464545)
(0.00464553 -0.00216017 -0 0.00464553 -0 0.00464553)
(0.00464558 -0.0021602 -0 0.00464559 -0 0.00464558)
(0.00464541 -0.00216012 -0 0.00464541 -0 0.00464541)
(0.00459522 -0.00213678 -0 0.00459522 -0 0.00459522)
(0.0045953 -0.00213681 -0 0.0045953 -0 0.0045953)
(0.00459535 -0.00213684 -0 0.00459536 -0 0.00459536)
(0.00459518 -0.00213676 -0 0.00459519 -0 0.00459519)
(0.00454408 -0.002113 -0 0.00454408 -0 0.00454408)
(0.00454416 -0.00211303 -0 0.00454415 -0 0.00454416)
(0.00454421 -0.00211306 -0 0.00454422 -0 0.00454422)
(0.00454405 -0.00211298 -0 0.00454405 -0 0.00454405)
(0.00449217 -0.00208886 -0 0.00449216 -0 0.00449217)
(0.00449224 -0.00208889 -0 0.00449224 -0 0.00449224)
(0.00449229 -0.00208892 -0 0.0044923 -0 0.0044923)
(0.00449213 -0.00208884 -0 0.00449213 -0 0.00449213)
(0.00443965 -0.00206443 -0 0.00443964 -0 0.00443964)
(0.0044397 -0.00206446 -0 0.00443971 -0 0.00443971)
(0.00443976 -0.00206449 -0 0.00443977 -0 0.00443977)
(0.00443962 -0.00206442 -0 0.00443961 -0 0.00443961)
(0.0043867 -0.00203982 -0 0.0043867 -0 0.0043867)
(0.00438675 -0.00203984 -0 0.00438677 -0 0.00438676)
(0.00438682 -0.00203987 -0 0.00438681 -0 0.00438681)
(0.00438668 -0.0020398 -0 0.00438666 -0 0.00438667)
(0.00433351 -0.00201509 -0 0.00433354 -0 0.00433353)
(0.00433356 -0.00201511 -0 0.00433359 -0 0.00433357)
(0.00433364 -0.00201513 -0 0.00433361 -0 0.00433362)
(0.00433352 -0.00201508 -0 0.00433349 -0 0.0043335)
(0.00428023 -0.00199032 -0 0.00428028 -0 0.00428026)
(0.00428027 -0.00199033 -0 0.00428031 -0 0.00428029)
(0.00428037 -0.00199036 -0 0.00428031 -0 0.00428034)
(0.00428027 -0.00199032 -0 0.00428023 -0 0.00428025)
(0.00422689 -0.00196552 -0 0.00422697 -0 0.00422693)
(0.00422693 -0.00196553 -0 0.00422697 -0 0.00422695)
(0.00422704 -0.00196556 -0 0.00422697 -0 0.004227)
(0.00422696 -0.00196553 -0 0.00422692 -0 0.00422694)
(0.00417335 -0.00193581 -0 0.00417343 -0 0.00417339)
(0.00417339 -0.00193575 -0 0.00417343 -0 0.00417341)
(0.0041735 -0.00193562 -0 0.00417342 -0 0.00417346)
(0.00417342 -0.00193502 -0 0.00417338 -0 0.0041734)
(0.00411948 -0.00190759 -0 0.00411953 -0 0.00411951)
(0.00411951 -0.00190745 -0 0.00411954 -0 0.00411952)
(0.00411959 -0.00190735 -0 0.00411954 -0 0.00411956)
(0.00411952 -0.00190701 -0 0.00411949 -0 0.0041195)
(0.00406524 -0.0018792 -0 0.00406527 -0 0.00406525)
(0.00406526 -0.00187908 -0 0.00406528 -0 0.00406527)
(0.00406532 -0.00187894 -0 0.00406529 -0 0.00406531)
(0.00406525 -0.00187856 -0 0.00406523 -0 0.00406524)
(0.00401063 -0.00185034 -0 0.00401065 -0 0.00401064)
(0.00401064 -0.00185021 -0 0.00401067 -0 0.00401066)
(0.00401069 -0.00185004 -0 0.00401068 -0 0.00401069)
(0.00401063 -0.00184965 -0 0.00401061 -0 0.00401062)
(0.00395566 -0.00182096 -0 0.00395566 -0 0.00395566)
(0.00395567 -0.00182084 -0 0.00395569 -0 0.00395568)
(0.00395571 -0.00182066 -0 0.00395571 -0 0.00395571)
(0.00395564 -0.00182025 -0 0.00395563 -0 0.00395563)
(0.00390032 -0.00179108 -0 0.00390031 -0 0.00390032)
(0.00390034 -0.00179097 -0 0.00390035 -0 0.00390034)
(0.00390036 -0.00179079 -0 0.00390037 -0 0.00390037)
(0.0039003 -0.00179037 -0 0.00390029 -0 0.00390029)
(0.00384463 -0.00176068 -0 0.00384461 -0 0.00384462)
(0.00384465 -0.00176058 -0 0.00384465 -0 0.00384465)
(0.00384466 -0.00176041 -0 0.00384468 -0 0.00384467)
(0.00384459 -0.00175999 -0 0.00384459 -0 0.00384459)
(0.00378858 -0.00172976 -0 0.00378855 -0 0.00378856)
(0.00378859 -0.00172968 -0 0.00378859 -0 0.00378859)
(0.0037886 -0.00172952 -0 0.00378862 -0 0.00378861)
(0.00378853 -0.0017291 -0 0.00378854 -0 0.00378854)
(0.00373217 -0.00169831 -0 0.00373214 -0 0.00373215)
(0.00373218 -0.00169825 -0 0.00373218 -0 0.00373218)
(0.00373218 -0.00169812 -0 0.00373221 -0 0.0037322)
(0.00373212 -0.00169771 -0 0.00373213 -0 0.00373212)
(0.0036754 -0.00166638 -0 0.00367537 -0 0.00367538)
(0.00367542 -0.00166631 -0 0.00367541 -0 0.00367541)
(0.00367542 -0.0016662 -0 0.00367545 -0 0.00367543)
(0.00367535 -0.0016658 -0 0.00367537 -0 0.00367536)
(0.00361828 -0.00163388 -0 0.00361825 -0 0.00361827)
(0.0036183 -0.00163386 -0 0.00361829 -0 0.0036183)
(0.0036183 -0.00163375 -0 0.00361833 -0 0.00361831)
(0.00361824 -0.00163338 -0 0.00361825 -0 0.00361825)
(0.00356082 -0.0016009 -0 0.0035608 -0 0.00356081)
(0.00356084 -0.00160087 -0 0.00356083 -0 0.00356083)
(0.00356084 -0.00160079 -0 0.00356087 -0 0.00356085)
(0.00356078 -0.00160045 -0 0.0035608 -0 0.00356079)
(0.00350303 -0.00156736 -0 0.003503 -0 0.00350302)
(0.00350305 -0.00156737 -0 0.00350303 -0 0.00350304)
(0.00350305 -0.00156729 -0 0.00350307 -0 0.00350306)
(0.00350299 -0.00156699 -0 0.00350301 -0 0.003503)
(0.00344492 -0.00153332 -0 0.00344489 -0 0.00344491)
(0.00344494 -0.00153333 -0 0.00344492 -0 0.00344493)
(0.00344494 -0.00153328 -0 0.00344496 -0 0.00344495)
(0.00344488 -0.00153301 -0 0.0034449 -0 0.00344489)
(0.00338651 -0.00149876 -0 0.00338648 -0 0.00338649)
(0.00338652 -0.00149877 -0 0.0033865 -0 0.00338651)
(0.00338652 -0.00149873 -0 0.00338655 -0 0.00338653)
(0.00338647 -0.00149851 -0 0.0033865 -0 0.00338648)
(0.00332781 -0.00146366 -0 0.00332779 -0 0.0033278)
(0.00332783 -0.00146368 -0 0.00332781 -0 0.00332782)
(0.00332783 -0.00146365 -0 0.00332785 -0 0.00332784)
(0.00332779 -0.00146347 -0 0.00332781 -0 0.0033278)
(0.00326887 -0.00142803 -0 0.00326885 -0 0.00326886)
(0.00326888 -0.00142806 -0 0.00326886 -0 0.00326887)
(0.00326889 -0.00142803 -0 0.0032689 -0 0.00326889)
(0.00326885 -0.0014279 -0 0.00326887 -0 0.00326886)
(0.00320971 -0.00139186 -0 0.00320969 -0 0.0032097)
(0.00320972 -0.0013919 -0 0.0032097 -0 0.00320971)
(0.00320972 -0.00139188 -0 0.00320974 -0 0.00320973)
(0.00320969 -0.00139179 -0 0.00320971 -0 0.0032097)
(0.00315036 -0.00135515 -0 0.00315035 -0 0.00315036)
(0.00315037 -0.00135519 -0 0.00315036 -0 0.00315036)
(0.00315038 -0.00135518 -0 0.00315039 -0 0.00315038)
(0.00315035 -0.00135513 -0 0.00315037 -0 0.00315036)
(0.00309088 -0.0013179 -0 0.00309087 -0 0.00309088)
(0.00309089 -0.00131794 -0 0.00309087 -0 0.00309088)
(0.00309089 -0.00131793 -0 0.00309091 -0 0.0030909)
(0.00309087 -0.00131792 -0 0.00309089 -0 0.00309088)
(0.00303132 -0.00128008 -0 0.0030313 -0 0.00303131)
(0.00303132 -0.00128013 -0 0.00303131 -0 0.00303131)
(0.00303132 -0.00128013 -0 0.00303133 -0 0.00303133)
(0.0030313 -0.00128015 -0 0.00303132 -0 0.00303131)
(0.00297172 -0.00124171 -0 0.00297171 -0 0.00297171)
(0.00297172 -0.00124175 -0 0.00297171 -0 0.00297171)
(0.00297172 -0.00124178 -0 0.00297173 -0 0.00297172)
(0.0029717 -0.00124183 -0 0.00297172 -0 0.00297171)
(0.00291215 -0.00120277 -0 0.00291214 -0 0.00291214)
(0.00291215 -0.00120282 -0 0.00291214 -0 0.00291214)
(0.00291215 -0.00120284 -0 0.00291216 -0 0.00291215)
(0.00291214 -0.00120294 -0 0.00291215 -0 0.00291215)
(0.00285269 -0.00116325 -0 0.00285268 -0 0.00285268)
(0.00285269 -0.00116333 -0 0.00285267 -0 0.00285268)
(0.00285268 -0.00116333 -0 0.00285269 -0 0.00285269)
(0.00285268 -0.00116347 -0 0.00285269 -0 0.00285269)
(0.00279341 -0.00112317 -0 0.0027934 -0 0.0027934)
(0.00279341 -0.00112325 -0 0.0027934 -0 0.0027934)
(0.0027934 -0.00112326 -0 0.00279341 -0 0.00279341)
(0.0027934 -0.00112343 -0 0.00279342 -0 0.00279341)
(0.0027344 -0.0010825 -0 0.00273439 -0 0.0027344)
(0.00273441 -0.00108258 -0 0.00273439 -0 0.0027344)
(0.0027344 -0.0010826 -0 0.00273441 -0 0.0027344)
(0.0027344 -0.00108281 -0 0.00273442 -0 0.00273441)
(0.00267577 -0.00104125 -0 0.00267576 -0 0.00267577)
(0.00267578 -0.00104133 -0 0.00267576 -0 0.00267577)
(0.00267577 -0.00104136 -0 0.00267578 -0 0.00267577)
(0.00267578 -0.00104159 -0 0.00267579 -0 0.00267578)
(0.00261763 -0.00099943 -0 0.00261762 -0 0.00261763)
(0.00261763 -0.000999458 -0 0.00261762 -0 0.00261763)
(0.00261763 -0.000999539 -0 0.00261763 -0 0.00261763)
(0.00261764 -0.000999773 -0 0.00261765 -0 0.00261764)
(0.0025601 -0.000956983 -0 0.00256009 -0 0.0025601)
(0.0025601 -0.000957045 -0 0.00256009 -0 0.00256009)
(0.00256009 -0.000957088 -0 0.0025601 -0 0.0025601)
(0.00256011 -0.000957363 -0 0.00256012 -0 0.00256011)
(0.00250331 -0.000913908 -0 0.0025033 -0 0.00250331)
(0.00250331 -0.000913999 -0 0.0025033 -0 0.00250331)
(0.0025033 -0.000914044 -0 0.00250331 -0 0.00250331)
(0.00250332 -0.000914344 -0 0.00250333 -0 0.00250333)
(0.00244742 -0.000870288 -0 0.00244741 -0 0.00244741)
(0.00244741 -0.0008703 -0 0.00244741 -0 0.00244741)
(0.00244741 -0.000870414 -0 0.00244741 -0 0.00244741)
(0.00244743 -0.000870704 -0 0.00244744 -0 0.00244743)
(0.00239258 -0.000826001 -0 0.00239257 -0 0.00239258)
(0.00239257 -0.000826074 -0 0.00239257 -0 0.00239257)
(0.00239257 -0.000826141 -0 0.00239258 -0 0.00239257)
(0.0023926 -0.000826445 -0 0.0023926 -0 0.0023926)
(0.00233898 -0.000781109 -0 0.00233897 -0 0.00233897)
(0.00233897 -0.000781171 -0 0.00233897 -0 0.00233897)
(0.00233897 -0.000781254 -0 0.00233897 -0 0.00233897)
(0.002339 -0.000781564 -0 0.002339 -0 0.002339)
(0.0022868 -0.000735592 -0 0.0022868 -0 0.0022868)
(0.00228679 -0.00073561 -0 0.00228679 -0 0.00228679)
(0.00228679 -0.000735741 -0 0.00228679 -0 0.00228679)
(0.00228682 -0.000736051 -0 0.00228682 -0 0.00228682)
(0.00223625 -0.000689433 -0 0.00223625 -0 0.00223625)
(0.00223623 -0.000689459 -0 0.00223624 -0 0.00223624)
(0.00223624 -0.000689574 -0 0.00223624 -0 0.00223624)
(0.00223628 -0.000689899 -0 0.00223627 -0 0.00223627)
(0.00218756 -0.00064263 -0 0.00218756 -0 0.00218756)
(0.00218754 -0.000642707 -0 0.00218755 -0 0.00218754)
(0.00218755 -0.000642781 -0 0.00218755 -0 0.00218755)
(0.00218759 -0.000643089 -0 0.00218758 -0 0.00218758)
(0.00214096 -0.000595183 -0 0.00214096 -0 0.00214096)
(0.00214094 -0.000595246 -0 0.00214095 -0 0.00214094)
(0.00214094 -0.000595325 -0 0.00214094 -0 0.00214094)
(0.00214098 -0.000595637 -0 0.00214098 -0 0.00214098)
(0.0020967 -0.000547079 -0 0.0020967 -0 0.0020967)
(0.00209668 -0.000547142 -0 0.00209669 -0 0.00209668)
(0.00209668 -0.000547222 -0 0.00209668 -0 0.00209668)
(0.00209673 -0.00054752 -0 0.00209672 -0 0.00209672)
(0.00205504 -0.000498314 -0 0.00205504 -0 0.00205504)
(0.00205502 -0.00049833 -0 0.00205503 -0 0.00205503)
(0.00205503 -0.000498459 -0 0.00205503 -0 0.00205503)
(0.00205507 -0.000498737 -0 0.00205507 -0 0.00205507)
(0.00201626 -0.000448845 -0 0.00201626 -0 0.00201626)
(0.00201624 -0.000448937 -0 0.00201625 -0 0.00201625)
(0.00201625 -0.000448983 -0 0.00201625 -0 0.00201625)
(0.00201629 -0.000449279 -0 0.00201629 -0 0.00201629)
(0.00198064 -0.000398769 -0 0.00198065 -0 0.00198065)
(0.00198063 -0.000398755 -0 0.00198063 -0 0.00198063)
(0.00198063 -0.00039889 -0 0.00198063 -0 0.00198063)
(0.00198068 -0.000399119 -0 0.00198067 -0 0.00198068)
(0.00194848 -0.000347945 -0 0.00194849 -0 0.00194849)
(0.00194846 -0.00034795 -0 0.00194847 -0 0.00194846)
(0.00194847 -0.000348053 -0 0.00194846 -0 0.00194847)
(0.00194852 -0.000348274 -0 0.00194851 -0 0.00194852)
(0.00192007 -0.000296431 -0 0.00192008 -0 0.00192008)
(0.00192004 -0.000296446 -0 0.00192006 -0 0.00192005)
(0.00192006 -0.00029651 -0 0.00192005 -0 0.00192005)
(0.00192011 -0.00029672 -0 0.0019201 -0 0.0019201)
(0.0018957 -0.000244201 -0 0.00189571 -0 0.0018957)
(0.00189567 -0.000244222 -0 0.00189569 -0 0.00189568)
(0.00189568 -0.000244279 -0 0.00189567 -0 0.00189568)
(0.00189574 -0.000244441 -0 0.00189572 -0 0.00189573)
(0.00187566 -0.000191249 -0 0.00187567 -0 0.00187567)
(0.00187563 -0.000191245 -0 0.00187565 -0 0.00187564)
(0.00187565 -0.000191313 -0 0.00187564 -0 0.00187564)
(0.0018757 -0.000191441 -0 0.00187569 -0 0.00187569)
(0.00186024 -0.000137547 -0 0.00186025 -0 0.00186025)
(0.00186021 -0.000137578 -0 0.00186023 -0 0.00186022)
(0.00186023 -0.000137593 -0 0.00186022 -0 0.00186022)
(0.00186028 -0.000137701 -0 0.00186027 -0 0.00186028)
(0.00184971 -8.31227e-05 -0 0.00184972 -0 0.00184972)
(0.00184968 -8.3118e-05 -0 0.0018497 -0 0.00184969)
(0.0018497 -8.31526e-05 -0 0.00184969 -0 0.00184969)
(0.00184976 -8.3203e-05 -0 0.00184974 -0 0.00184975)
(0.00184433 -2.78566e-05 -0 0.00184434 -0 0.00184434)
(0.0018443 -2.78596e-05 -0 0.00184432 -0 0.00184431)
(0.00184432 -2.78682e-05 -0 0.00184431 -0 0.00184431)
(0.00184438 -2.78871e-05 -0 0.00184436 -0 0.00184437)
)
;

boundaryField
{
    inlet
    {
        type            cyclic;
    }
    outlet
    {
        type            cyclic;
    }
    fixedWalls-bottom
    {
        type            kqRWallFunction;
        value           nonuniform List<symmTensor> 4((1.95869e-06 -0 -0 1.95869e-06 -0 1.95869e-06) (1.95878e-06 -0 -0 1.95878e-06 -0 1.95878e-06) (1.95864e-06 -0 -0 1.95864e-06 -0 1.95864e-06) (1.95865e-06 -0 -0 1.95865e-06 -0 1.95865e-06));
    }
    fixedWalls-top
    {
        type            symmetry;
    }
    frontAndBack
    {
        type            empty;
    }
}


// ************************************************************************* //
