/*--------------------------------*- C++ -*----------------------------------*\
  =========                 |
  \\      /  F ield         | OpenFOAM: The Open Source CFD Toolbox
   \\    /   O peration     | Website:  https://openfoam.org
    \\  /    A nd           | Version:  10
     \\/     M anipulation  |
\*---------------------------------------------------------------------------*/
FoamFile
{
    format      ascii;
    class       volScalarField;
    location    "3933";
    object      k;
}
// * * * * * * * * * * * * * * * * * * * * * * * * * * * * * * * * * * * * * //

dimensions      [0 2 -2 0 0 0 0];

internalField   nonuniform List<scalar> 
400
(
3.65662e-07
3.65517e-07
3.65614e-07
3.65661e-07
1.09699e-05
1.09655e-05
1.09684e-05
1.09699e-05
7.75612e-05
7.75303e-05
7.7551e-05
7.75611e-05
0.000279179
0.000279068
0.000279144
0.000279179
0.000699153
0.000698883
0.000699078
0.000699162
0.00137567
0.00137519
0.00137559
0.00137574
0.00225485
0.00225421
0.00225487
0.00225508
0.00321349
0.00321286
0.00321379
0.00321407
0.00413673
0.00413622
0.00413736
0.00413773
0.00496178
0.00496146
0.00496276
0.0049632
0.00567235
0.00567223
0.00567367
0.00567413
0.00627691
0.00627695
0.0062785
0.00627894
0.00678576
0.00678591
0.00678752
0.00678793
0.00721133
0.00721155
0.00721318
0.00721352
0.00756608
0.00756632
0.00756793
0.00756819
0.00786124
0.00786149
0.00786303
0.00786319
0.00810648
0.00810672
0.00810817
0.00810822
0.00830982
0.00831007
0.0083114
0.00831134
0.00847784
0.00847811
0.00847931
0.00847913
0.00861591
0.0086162
0.00861727
0.00861697
0.0087284
0.0087287
0.00872965
0.00872922
0.00881887
0.00881916
0.00882
0.00881944
0.00889023
0.00889052
0.00889125
0.00889058
0.00894489
0.00894517
0.00894581
0.00894503
0.00898484
0.00898514
0.00898568
0.00898481
0.00901176
0.00901209
0.00901254
0.00901161
0.00902708
0.00902744
0.00902781
0.00902684
0.00903202
0.0090324
0.0090327
0.00903171
0.0090276
0.00902801
0.00902825
0.00902726
0.00901474
0.00901517
0.00901536
0.00901438
0.00899423
0.00899467
0.00899481
0.00899386
0.00896674
0.00896719
0.00896729
0.00896638
0.00893288
0.00893333
0.0089334
0.00893254
0.00889319
0.00889362
0.00889367
0.00889287
0.00884814
0.00884855
0.00884857
0.00884784
0.00879815
0.00879854
0.00879854
0.00879787
0.00874361
0.00874396
0.00874394
0.00874335
0.00868487
0.00868518
0.00868515
0.00868462
0.00862226
0.00862254
0.00862248
0.00862203
0.00855611
0.00855633
0.00855625
0.00855588
0.00848671
0.00848688
0.00848678
0.00848649
0.00841437
0.00841449
0.00841437
0.00841415
0.0083394
0.00833948
0.00833934
0.00833919
0.00826209
0.00826213
0.00826199
0.0082619
0.00818272
0.00818274
0.00818259
0.00818254
0.00810148
0.00810149
0.00810134
0.00810132
0.00801841
0.0080184
0.00801823
0.00801826
0.00793341
0.00793337
0.00793318
0.00793326
0.00784643
0.00784637
0.00784615
0.00784628
0.00775747
0.00775739
0.00775715
0.00775733
0.00766656
0.00766646
0.00766619
0.00766642
0.00757368
0.00757357
0.00757328
0.00757354
0.00747885
0.00747872
0.00747841
0.00747871
0.00738205
0.00738193
0.0073816
0.00738193
0.00728331
0.00728318
0.00728284
0.0072832
0.00718261
0.00718248
0.00718213
0.00718251
0.00707995
0.00707982
0.00707946
0.00707986
0.00697534
0.00697521
0.00697485
0.00697526
0.00686876
0.00686864
0.00686827
0.0068687
0.00676023
0.0067601
0.00675974
0.00676017
0.00664972
0.0066496
0.00664924
0.00664968
0.00653725
0.00653713
0.00653678
0.00653722
0.00642281
0.0064227
0.00642235
0.00642279
0.0063064
0.00630629
0.00630596
0.00630639
0.00618802
0.00618792
0.0061876
0.00618803
0.0060677
0.0060676
0.00606728
0.0060677
0.00594544
0.00594534
0.00594504
0.00594544
0.00582127
0.00582118
0.00582089
0.00582128
0.00569525
0.00569515
0.00569488
0.00569526
0.00556742
0.00556732
0.00556706
0.00556743
0.00543784
0.00543774
0.0054375
0.00543786
0.0053066
0.00530651
0.00530627
0.00530663
0.00517378
0.0051737
0.00517347
0.00517382
0.0050395
0.00503943
0.00503921
0.00503955
0.00490387
0.00490381
0.00490361
0.00490394
0.00476705
0.004767
0.0047668
0.00476712
0.00462918
0.00462914
0.00462896
0.00462926
0.00449044
0.0044904
0.00449023
0.00449053
0.00435101
0.00435097
0.00435081
0.0043511
0.0042111
0.00421105
0.00421091
0.00421119
0.00407093
0.00407089
0.00407075
0.00407102
0.00393075
0.00393071
0.00393058
0.00393084
0.00379085
0.0037908
0.00379069
0.00379093
0.00365155
0.0036515
0.00365139
0.00365161
0.00351321
0.00351316
0.00351305
0.00351326
0.00337626
0.00337622
0.00337611
0.0033763
0.00324121
0.00324118
0.00324107
0.00324124
0.00310865
0.00310863
0.00310853
0.00310869
0.0029793
0.00297928
0.00297919
0.00297934
0.00285396
0.00285394
0.00285386
0.002854
0.00273359
0.00273357
0.00273349
0.00273362
0.00261926
0.00261924
0.00261916
0.00261929
0.00251219
0.00251218
0.0025121
0.00251222
0.00241372
0.0024137
0.00241362
0.00241375
0.00232528
0.00232526
0.00232517
0.0023253
0.00224832
0.0022483
0.00224821
0.00224835
0.00218431
0.00218429
0.0021842
0.00218434
0.00213464
0.0021346
0.00213451
0.00213466
0.00210054
0.00210048
0.00210038
0.00210054
0.00208306
0.00208298
0.00208287
0.00208303
)
;

boundaryField
{
    inlet
    {
        type            cyclic;
    }
    outlet
    {
        type            cyclic;
    }
    fixedWalls-bottom
    {
        type            kqRWallFunction;
        value           nonuniform List<scalar> 4(3.65662e-07 3.65517e-07 3.65614e-07 3.65661e-07);
    }
    fixedWalls-top
    {
        type            symmetry;
    }
    frontAndBack
    {
        type            empty;
    }
}


// ************************************************************************* //
