/*--------------------------------*- C++ -*----------------------------------*\
  =========                 |
  \\      /  F ield         | OpenFOAM: The Open Source CFD Toolbox
   \\    /   O peration     | Website:  https://openfoam.org
    \\  /    A nd           | Version:  10
     \\/     M anipulation  |
\*---------------------------------------------------------------------------*/
FoamFile
{
    format      ascii;
    class       volScalarField;
    location    "3933";
    object      nut;
}
// * * * * * * * * * * * * * * * * * * * * * * * * * * * * * * * * * * * * * //

dimensions      [0 2 -1 0 0 0 0];

internalField   nonuniform List<scalar> 
400
(
8.00661e-11
8.00343e-11
8.00556e-11
8.0066e-11
1.4028e-08
1.40224e-08
1.40262e-08
1.4028e-08
2.92522e-07
2.92404e-07
2.92482e-07
2.9252e-07
2.18304e-06
2.18212e-06
2.18269e-06
2.18297e-06
9.15517e-06
9.15084e-06
9.15329e-06
9.15445e-06
2.61913e-05
2.61779e-05
2.61857e-05
2.61882e-05
5.69003e-05
5.68733e-05
5.68918e-05
5.68952e-05
0.000101354
0.000101321
0.000101357
0.000101358
0.000157031
0.000157
0.000157062
0.000157069
0.000220048
0.000220026
0.000220088
0.000220117
0.000284741
0.000284726
0.000284803
0.000284843
0.000354446
0.000354438
0.000354533
0.000354582
0.000429139
0.000429135
0.000429248
0.000429305
0.000508414
0.000508412
0.00050854
0.000508601
0.000591892
0.000591888
0.000592028
0.000592089
0.000679203
0.000679197
0.000679343
0.000679398
0.000769996
0.000769992
0.000770138
0.000770181
0.000864166
0.000864169
0.000864311
0.000864335
0.000961553
0.000961568
0.000961704
0.000961702
0.00106199
0.00106202
0.00106215
0.00106212
0.0011653
0.00116535
0.00116547
0.0011654
0.00127129
0.00127135
0.00127147
0.00127136
0.00137974
0.00137981
0.00137993
0.00137977
0.0014904
0.00149048
0.00149059
0.00149039
0.00160298
0.00160306
0.00160318
0.00160294
0.00171715
0.00171725
0.00171736
0.00171709
0.00183257
0.00183269
0.0018328
0.0018325
0.00194888
0.00194902
0.00194911
0.0019488
0.00206568
0.00206583
0.00206592
0.0020656
0.00218258
0.00218274
0.00218283
0.00218251
0.00229919
0.00229936
0.00229944
0.00229912
0.00241514
0.00241532
0.00241538
0.00241507
0.00253007
0.00253024
0.00253029
0.00253
0.00264367
0.00264384
0.00264387
0.0026436
0.00275567
0.00275583
0.00275584
0.0027556
0.0028659
0.00286603
0.00286602
0.00286581
0.00297424
0.00297434
0.00297432
0.00297415
0.00308069
0.00308075
0.00308073
0.00308061
0.00318538
0.00318539
0.00318539
0.00318534
0.00328852
0.00328849
0.00328857
0.00328855
0.00339041
0.00339041
0.00339062
0.00339056
0.00349136
0.00349149
0.00349188
0.00349167
0.00359152
0.0035919
0.00359248
0.00359196
0.00369049
0.00369125
0.00369193
0.00369097
0.0037868
0.00378783
0.00378839
0.00378711
0.00387674
0.00387746
0.00387757
0.0038767
0.00395277
0.0039516
0.00395086
0.00395239
0.00401423
0.00401276
0.00401222
0.00401392
0.0040714
0.00406972
0.00406933
0.0040712
0.00412431
0.0041225
0.00412219
0.00412428
0.00417298
0.00417111
0.00417085
0.00417315
0.00421744
0.00421555
0.00421532
0.00421783
0.00425771
0.00425584
0.00425561
0.00425833
0.00429382
0.00429198
0.00429174
0.00429467
0.00432577
0.00432396
0.00432372
0.00432684
0.00435357
0.00435179
0.00435153
0.00435484
0.00437721
0.00437547
0.00437519
0.00437868
0.00439671
0.004395
0.00439471
0.00439836
0.00441204
0.00441038
0.00441008
0.00441387
0.00442322
0.00442163
0.00442132
0.00442522
0.00443023
0.00442871
0.00442842
0.0044324
0.00443307
0.00443158
0.00443138
0.0044354
0.00443168
0.0044301
0.00443017
0.00443418
0.00442602
0.00442452
0.00442464
0.00442871
0.00441609
0.00441468
0.00441486
0.00441897
0.00440199
0.00440072
0.00440096
0.00440508
0.0043839
0.0043828
0.0043831
0.0043872
0.00436188
0.00436099
0.00436135
0.00436542
0.004336
0.00433537
0.00433577
0.0043398
0.0043063
0.00430598
0.00430637
0.00431039
0.0042728
0.00427291
0.00427314
0.00427721
0.0042355
0.00423632
0.004236
0.00424026
0.00419443
0.00419546
0.00419509
0.00419952
0.0041496
0.00415087
0.0041505
0.00415496
0.00410115
0.00410264
0.00410227
0.00410667
0.0040492
0.00405083
0.00405046
0.00405478
0.0039937
0.00399537
0.00399496
0.00399949
0.00393481
0.00393635
0.00393602
0.00394081
0.0038727
0.00387399
0.0038741
0.00387869
0.0038077
0.00380811
0.00380915
0.00381329
0.0037387
0.00374058
0.00374044
0.00374495
0.00366764
0.0036691
0.00366925
0.00367368
0.00359461
0.00359475
0.00359615
0.00359963
0.00351858
0.00351981
0.00351996
0.00352352
0.00344073
0.00344225
0.0034422
0.00344572
0.00336164
0.00336334
0.00336318
0.00336669
0.00328193
0.00328375
0.00328353
0.00328706
0.00320235
0.00320425
0.00320398
0.00320752
0.00312375
0.00312567
0.00312536
0.00312893
0.00304708
0.00304895
0.00304862
0.00305226
0.00297338
0.00297522
0.00297486
0.00297863
0.00290388
0.0029057
0.0029053
0.00290924
0.0028399
0.00284168
0.00284123
0.00284542
0.00278274
0.00278445
0.00278397
0.00278846
0.00273351
0.00273517
0.00273471
0.00273954
0.002693
0.00269475
0.00269437
0.00269958
0.0026617
0.00266358
0.00266348
0.00266903
0.00264158
0.00264116
0.00264208
0.00264763
0.00263026
0.00262893
0.00262887
0.00263467
0.00262575
0.00262281
0.00262345
0.00262903
)
;

boundaryField
{
    inlet
    {
        type            cyclic;
    }
    outlet
    {
        type            cyclic;
    }
    fixedWalls-bottom
    {
        type            nutkWallFunction;
        Cmu             0.09;
        kappa           0.41;
        E               9.8;
        value           uniform 0;
    }
    fixedWalls-top
    {
        type            symmetry;
    }
    frontAndBack
    {
        type            empty;
    }
}


// ************************************************************************* //
