/*--------------------------------*- C++ -*----------------------------------*\
  =========                 |
  \\      /  F ield         | OpenFOAM: The Open Source CFD Toolbox
   \\    /   O peration     | Website:  https://openfoam.org
    \\  /    A nd           | Version:  10
     \\/     M anipulation  |
\*---------------------------------------------------------------------------*/
FoamFile
{
    format      ascii;
    class       volScalarField;
    location    "3933";
    object      omega;
}
// * * * * * * * * * * * * * * * * * * * * * * * * * * * * * * * * * * * * * //

dimensions      [0 0 -1 0 0 0 0];

internalField   nonuniform List<scalar> 
400
(
4567
4567
4567
4567
781.998
781.998
781.998
781.998
265.147
265.148
265.148
265.148
127.885
127.889
127.89
127.89
76.367
76.3737
76.3745
76.374
52.5241
52.5327
52.5321
52.5327
39.6281
39.6357
39.6344
39.6357
31.7057
31.7097
31.7074
31.71
26.3434
26.3454
26.3423
26.3434
22.462
22.4615
22.4574
22.4582
19.5076
19.5045
19.5002
19.5008
17.1697
17.1647
17.1604
17.1611
15.2659
15.2601
15.2559
15.2566
13.6819
13.6762
13.6721
13.6728
12.3417
12.3366
12.3327
12.3334
11.1924
11.1881
11.1847
11.1854
10.196
10.1926
10.1898
10.1907
9.32466
9.32177
9.31984
9.32117
8.55725
8.55448
8.55339
8.55512
7.87718
7.87442
7.87408
7.87616
7.27152
7.26904
7.26899
7.27147
6.72982
6.72791
6.72804
6.73088
6.244
6.24274
6.24298
6.24613
5.80742
5.80671
5.80704
5.81043
5.41447
5.41415
5.41456
5.41812
5.06037
5.06027
5.06076
5.06441
4.74102
4.74091
4.74151
4.74516
4.4526
4.45256
4.45318
4.45678
4.19201
4.19203
4.19259
4.1961
3.95634
3.95637
3.95696
3.96028
3.74304
3.74308
3.74369
3.74678
3.54982
3.54985
3.55047
3.5533
3.37457
3.37461
3.3752
3.37777
3.2154
3.21544
3.21599
3.21829
3.07062
3.07067
3.07117
3.07318
2.9387
2.93876
2.9392
2.94094
2.81831
2.81838
2.81879
2.82023
2.70823
2.70831
2.70873
2.70982
2.60726
2.60736
2.60785
2.6085
2.51434
2.51446
2.51507
2.51521
2.42862
2.42872
2.42937
2.42919
2.34929
2.34941
2.3501
2.3497
2.27574
2.27589
2.27659
2.27605
2.20738
2.2076
2.20827
2.20764
2.14369
2.14402
2.14462
2.14392
2.08422
2.08468
2.08516
2.08441
2.02855
2.02915
2.02949
2.02871
1.97632
1.97704
1.97725
1.97644
1.92721
1.92799
1.92812
1.92726
1.88091
1.88172
1.8818
1.8809
1.83719
1.83799
1.83804
1.83708
1.7958
1.79658
1.79661
1.7956
1.75654
1.75728
1.75731
1.75626
1.71923
1.71994
1.71995
1.71886
1.6837
1.68438
1.68439
1.68326
1.64982
1.65046
1.65048
1.64931
1.61746
1.61807
1.61809
1.61689
1.58649
1.58708
1.5871
1.58588
1.55682
1.55738
1.5574
1.55616
1.52835
1.52887
1.5289
1.52765
1.50099
1.50148
1.50149
1.50025
1.47466
1.47513
1.47511
1.47387
1.44929
1.44979
1.44969
1.44847
1.42484
1.42531
1.42519
1.42398
1.40125
1.40167
1.40154
1.40033
1.3784
1.37877
1.37863
1.37743
1.3562
1.35652
1.35635
1.35518
1.33458
1.33483
1.33465
1.3335
1.31348
1.31365
1.31346
1.31233
1.29285
1.29293
1.29275
1.29163
1.27266
1.27261
1.27248
1.27136
1.25288
1.25262
1.25266
1.25149
1.23349
1.23317
1.23322
1.232
1.21445
1.21406
1.21412
1.2129
1.19573
1.19528
1.19534
1.19414
1.17728
1.1768
1.17686
1.17568
1.15912
1.15862
1.1587
1.15746
1.14121
1.14075
1.1408
1.13949
1.12351
1.12312
1.12305
1.1218
1.10594
1.10581
1.10547
1.10434
1.08886
1.0883
1.08831
1.08707
1.07174
1.0713
1.07122
1.07
1.05459
1.05454
1.0541
1.05315
1.03779
1.03741
1.03734
1.03635
1.02106
1.0206
1.02058
1.0196
1.00435
1.00383
1.00385
1.00285
0.987592
0.987034
0.987069
0.986063
0.970742
0.970158
0.97021
0.969188
0.953758
0.953166
0.953233
0.95219
0.936621
0.936042
0.936117
0.935043
0.919353
0.918781
0.918864
0.917745
0.901988
0.901416
0.901513
0.900333
0.884607
0.884044
0.884157
0.882899
0.867391
0.86685
0.866971
0.865622
0.850656
0.850133
0.850245
0.848792
0.834878
0.834326
0.834411
0.832851
0.820646
0.820056
0.820054
0.818404
0.808093
0.808205
0.80789
0.806254
0.798605
0.798987
0.798966
0.797269
0.79332
0.794176
0.793944
0.792319
)
;

boundaryField
{
    inlet
    {
        type            cyclic;
    }
    outlet
    {
        type            cyclic;
    }
    fixedWalls-bottom
    {
        beta1           0.075;
        blended         0;
        type            omegaWallFunction;
        value           uniform 4567;
    }
    fixedWalls-top
    {
        type            symmetry;
    }
    frontAndBack
    {
        type            empty;
    }
}


// ************************************************************************* //
