/*--------------------------------*- C++ -*----------------------------------*\
  =========                 |
  \\      /  F ield         | OpenFOAM: The Open Source CFD Toolbox
   \\    /   O peration     | Website:  https://openfoam.org
    \\  /    A nd           | Version:  10
     \\/     M anipulation  |
\*---------------------------------------------------------------------------*/
FoamFile
{
    format      ascii;
    class       volScalarField;
    location    "3933";
    object      p;
}
// * * * * * * * * * * * * * * * * * * * * * * * * * * * * * * * * * * * * * //

dimensions      [0 2 -2 0 0 0 0];

internalField   nonuniform List<scalar> 
400
(
-9.37453e-13
-1.34413e-06
-1.23946e-06
1.04667e-07
6.00514e-10
-1.34372e-06
-1.24006e-06
1.04263e-07
1.34376e-09
-1.34328e-06
-1.2408e-06
1.03824e-07
2.09739e-09
-1.34287e-06
-1.24156e-06
1.03415e-07
2.76739e-09
-1.34253e-06
-1.24223e-06
1.03076e-07
3.15749e-09
-1.34243e-06
-1.24262e-06
1.02967e-07
2.99458e-09
-1.34252e-06
-1.24246e-06
1.03058e-07
1.94406e-09
-1.34192e-06
-1.24141e-06
1.02457e-07
-6.95528e-10
-1.33944e-06
-1.23877e-06
9.99773e-08
-5.05402e-09
-1.33532e-06
-1.23441e-06
9.586e-08
-1.07519e-08
-1.33007e-06
-1.22871e-06
9.06126e-08
-1.77408e-08
-1.32347e-06
-1.22172e-06
8.40114e-08
-2.58407e-08
-1.31561e-06
-1.21362e-06
7.61561e-08
-3.47407e-08
-1.30689e-06
-1.20472e-06
6.74351e-08
-4.40135e-08
-1.29777e-06
-1.19545e-06
5.83107e-08
-5.3163e-08
-1.28861e-06
-1.1863e-06
4.91533e-08
-6.17135e-08
-1.27959e-06
-1.17775e-06
4.01397e-08
-6.92742e-08
-1.27073e-06
-1.17019e-06
3.12772e-08
-7.55811e-08
-1.26193e-06
-1.16388e-06
2.24741e-08
-8.05109e-08
-1.25306e-06
-1.15895e-06
1.36015e-08
-8.4037e-08
-1.24403e-06
-1.15543e-06
4.57378e-09
-8.61709e-08
-1.23484e-06
-1.15329e-06
-4.61028e-09
-8.6949e-08
-1.22554e-06
-1.15252e-06
-1.39119e-08
-8.6451e-08
-1.21613e-06
-1.15301e-06
-2.33218e-08
-8.48022e-08
-1.20657e-06
-1.15466e-06
-3.28822e-08
-8.21689e-08
-1.19679e-06
-1.1573e-06
-4.26614e-08
-7.87522e-08
-1.18675e-06
-1.16072e-06
-5.27062e-08
-7.47654e-08
-1.17644e-06
-1.1647e-06
-6.30112e-08
-7.03991e-08
-1.16593e-06
-1.16907e-06
-7.35243e-08
-6.57967e-08
-1.15529e-06
-1.17367e-06
-8.41652e-08
-6.10505e-08
-1.14461e-06
-1.17842e-06
-9.4842e-08
-5.62124e-08
-1.13399e-06
-1.18326e-06
-1.05462e-07
-5.13058e-08
-1.12352e-06
-1.18817e-06
-1.1593e-07
-4.63427e-08
-1.11331e-06
-1.19313e-06
-1.26141e-07
-4.1347e-08
-1.10348e-06
-1.19813e-06
-1.35973e-07
-3.63878e-08
-1.09416e-06
-1.20309e-06
-1.45286e-07
-3.1613e-08
-1.08549e-06
-1.20786e-06
-1.53956e-07
-2.72756e-08
-1.0775e-06
-1.2122e-06
-1.61948e-07
-2.37309e-08
-1.07e-06
-1.21574e-06
-1.69445e-07
-2.13459e-08
-1.06242e-06
-1.21813e-06
-1.77032e-07
-2.02616e-08
-1.05359e-06
-1.21921e-06
-1.85857e-07
-1.99963e-08
-1.04178e-06
-1.21948e-06
-1.97663e-07
-1.89851e-08
-1.02491e-06
-1.22049e-06
-2.14539e-07
-1.45271e-08
-1.00149e-06
-1.22494e-06
-2.37953e-07
-4.44748e-09
-9.73333e-07
-1.23502e-06
-2.66103e-07
8.35499e-09
-9.49828e-07
-1.24783e-06
-2.8961e-07
1.31487e-08
-9.46519e-07
-1.25263e-06
-2.92933e-07
7.33651e-09
-9.59803e-07
-1.24682e-06
-2.79658e-07
-2.72613e-09
-9.74833e-07
-1.23676e-06
-2.6463e-07
-1.5213e-08
-9.89137e-07
-1.22427e-06
-2.50324e-07
-2.99439e-08
-1.00325e-06
-1.20954e-06
-2.36208e-07
-4.6805e-08
-1.0173e-06
-1.19268e-06
-2.22153e-07
-6.55556e-08
-1.03112e-06
-1.17393e-06
-2.08331e-07
-8.59634e-08
-1.04461e-06
-1.15352e-06
-1.94844e-07
-1.07858e-07
-1.05777e-06
-1.13163e-06
-1.81681e-07
-1.31114e-07
-1.07066e-06
-1.10837e-06
-1.68789e-07
-1.55617e-07
-1.08333e-06
-1.08387e-06
-1.56116e-07
-1.81228e-07
-1.09579e-06
-1.05826e-06
-1.43653e-07
-2.07753e-07
-1.10796e-06
-1.03174e-06
-1.31477e-07
-2.34943e-07
-1.11967e-06
-1.00455e-06
-1.19765e-07
-2.62641e-07
-1.13065e-06
-9.76849e-07
-1.08779e-07
-2.91108e-07
-1.14057e-06
-9.48382e-07
-9.8856e-08
-3.21135e-07
-1.14909e-06
-9.18356e-07
-9.03339e-08
-3.52603e-07
-1.15621e-06
-8.86889e-07
-8.32185e-08
-3.84711e-07
-1.162e-06
-8.54783e-07
-7.74217e-08
-4.17193e-07
-1.16625e-06
-8.22302e-07
-7.31716e-08
-4.49853e-07
-1.16861e-06
-7.89643e-07
-7.08039e-08
-4.82517e-07
-1.16876e-06
-7.56981e-07
-7.06591e-08
-5.15068e-07
-1.16636e-06
-7.24431e-07
-7.30593e-08
-5.47271e-07
-1.16123e-06
-6.92229e-07
-7.8184e-08
-5.78325e-07
-1.15361e-06
-6.61176e-07
-8.58106e-08
-6.06892e-07
-1.14426e-06
-6.32611e-07
-9.51546e-08
-6.34074e-07
-1.13372e-06
-6.0543e-07
-1.05694e-07
-6.61585e-07
-1.12164e-06
-5.77919e-07
-1.17785e-07
-6.88755e-07
-1.10769e-06
-5.5075e-07
-1.3173e-07
-7.14973e-07
-1.09239e-06
-5.24533e-07
-1.47036e-07
-7.41234e-07
-1.07684e-06
-4.98273e-07
-1.62585e-07
-7.69442e-07
-1.06185e-06
-4.70065e-07
-1.77575e-07
-8.00375e-07
-1.04669e-06
-4.39132e-07
-1.92733e-07
-8.33755e-07
-1.0307e-06
-4.05751e-07
-2.08723e-07
-8.65316e-07
-1.01342e-06
-3.74189e-07
-2.25996e-07
-8.94392e-07
-9.95812e-07
-3.45113e-07
-2.43606e-07
-9.24396e-07
-9.79592e-07
-3.15108e-07
-2.59824e-07
-9.50518e-07
-9.64806e-07
-2.88986e-07
-2.74609e-07
-9.70562e-07
-9.50629e-07
-2.68943e-07
-2.88787e-07
-9.88386e-07
-9.36281e-07
-2.5112e-07
-3.03135e-07
-1.00543e-06
-9.21841e-07
-2.34078e-07
-3.17576e-07
-1.02186e-06
-9.07619e-07
-2.17646e-07
-3.318e-07
-1.03768e-06
-8.94048e-07
-2.01827e-07
-3.45371e-07
-1.05304e-06
-8.81547e-07
-1.86466e-07
-3.57873e-07
-1.06815e-06
-8.70227e-07
-1.71362e-07
-3.69194e-07
-1.0831e-06
-8.6002e-07
-1.56411e-07
-3.79401e-07
-1.09792e-06
-8.51039e-07
-1.41591e-07
-3.88381e-07
-1.1126e-06
-8.43439e-07
-1.26907e-07
-3.9598e-07
-1.12713e-06
-8.37007e-07
-1.1238e-07
-4.02411e-07
-1.14138e-06
-8.3102e-07
-9.81278e-08
-4.08397e-07
-1.15515e-06
-8.25192e-07
-8.43628e-08
-4.14223e-07
-1.16768e-06
-8.21788e-07
-7.18323e-08
-4.17624e-07
-1.17657e-06
-8.2213e-07
-6.29404e-08
-4.17276e-07
-1.18149e-06
-8.23911e-07
-5.80243e-08
-4.15488e-07
)
;

boundaryField
{
    inlet
    {
        type            cyclic;
    }
    outlet
    {
        type            cyclic;
    }
    fixedWalls-bottom
    {
        type            zeroGradient;
    }
    fixedWalls-top
    {
        type            symmetry;
    }
    frontAndBack
    {
        type            empty;
    }
}


// ************************************************************************* //
