/*--------------------------------*- C++ -*----------------------------------*\
  =========                 |
  \\      /  F ield         | OpenFOAM: The Open Source CFD Toolbox
   \\    /   O peration     | Website:  https://openfoam.org
    \\  /    A nd           | Version:  10
     \\/     M anipulation  |
\*---------------------------------------------------------------------------*/
FoamFile
{
    format      ascii;
    class       surfaceScalarField;
    location    "3933";
    object      phi;
}
// * * * * * * * * * * * * * * * * * * * * * * * * * * * * * * * * * * * * * //

dimensions      [0 3 -1 0 0 0 0];

internalField   nonuniform List<scalar> 
696
(
0.000268229
4.38638e-09
0.000268224
4.06929e-09
0.000268229
-4.35151e-09
-4.06962e-09
0.000817329
1.88795e-08
0.000817317
1.51242e-08
0.000817332
-1.88452e-08
-1.51251e-08
0.00138675
4.50833e-08
0.00138674
3.21793e-08
0.00138676
-4.50498e-08
-3.21806e-08
0.00197528
8.45791e-08
0.00197526
5.38537e-08
0.0019753
-8.45461e-08
-5.38556e-08
0.0025771
1.38284e-07
0.00257708
7.7397e-08
0.00257713
-1.38252e-07
-7.73994e-08
0.00317889
2.05018e-07
0.00317887
9.77029e-08
0.00317894
-2.04986e-07
-9.77056e-08
0.00376234
2.80909e-07
0.00376233
1.08627e-07
0.00376241
-2.80878e-07
-1.0863e-07
0.00431241
3.60877e-07
0.00431241
1.09443e-07
0.00431249
-3.60846e-07
-1.09447e-07
0.00482286
4.36796e-07
0.00482287
1.06017e-07
0.00482294
-4.36766e-07
-1.06021e-07
0.00529533
5.03119e-07
0.00529534
1.00194e-07
0.00529541
-5.0309e-07
-1.00198e-07
0.00573614
5.57873e-07
0.00573615
9.14113e-08
0.00573621
-5.57844e-07
-9.14153e-08
0.00615107
5.99279e-07
0.00615108
8.08895e-08
0.00615112
-5.9925e-07
-8.08936e-08
0.0065439
6.26568e-07
0.00654391
6.93987e-08
0.00654394
-6.26539e-07
-6.94029e-08
0.00691791
6.39999e-07
0.00691793
5.69447e-08
0.00691794
-6.39971e-07
-5.6949e-08
0.00727602
6.40809e-07
0.00727603
4.29366e-08
0.00727603
-6.40782e-07
-4.2941e-08
0.00762071
6.31022e-07
0.00762073
2.6586e-08
0.00762072
-6.30995e-07
-2.65905e-08
0.00795416
6.13093e-07
0.00795418
7.39035e-09
0.00795416
-6.13066e-07
-7.39497e-09
0.00827819
5.89559e-07
0.00827821
-1.46523e-08
0.00827818
-5.89533e-07
1.46476e-08
0.00859433
5.62742e-07
0.00859436
-3.90628e-08
0.00859433
-5.62716e-07
3.9058e-08
0.00890392
5.3454e-07
0.00890395
-6.50028e-08
0.00890392
-5.34514e-07
6.49979e-08
0.00920807
5.06384e-07
0.0092081
-9.15137e-08
0.00920807
-5.06358e-07
9.15087e-08
0.00950777
4.79333e-07
0.0095078
-1.17753e-07
0.00950777
-4.79308e-07
1.17748e-07
0.00980387
4.54158e-07
0.0098039
-1.43083e-07
0.00980387
-4.54132e-07
1.43078e-07
0.0100971
4.31366e-07
0.0100971
-1.67014e-07
0.0100971
-4.31341e-07
1.67008e-07
0.0103882
4.11222e-07
0.0103882
-1.89125e-07
0.0103882
-4.11197e-07
1.8912e-07
0.0106777
3.93767e-07
0.0106777
-2.09033e-07
0.0106777
-3.93742e-07
2.09028e-07
0.0109661
3.78831e-07
0.0109661
-2.26409e-07
0.0109661
-3.78807e-07
2.26404e-07
0.011254
3.66077e-07
0.011254
-2.4104e-07
0.011254
-3.66053e-07
2.41034e-07
0.0115418
3.5507e-07
0.0115418
-2.52852e-07
0.0115418
-3.55045e-07
2.52846e-07
0.0118298
3.45356e-07
0.0118299
-2.61908e-07
0.0118298
-3.45332e-07
2.61902e-07
0.0121186
3.36535e-07
0.0121186
-2.68391e-07
0.0121186
-3.36511e-07
2.68385e-07
0.0124084
3.28287e-07
0.0124084
-2.72575e-07
0.0124084
-3.28263e-07
2.72569e-07
0.0126995
3.20393e-07
0.0126995
-2.7481e-07
0.0126995
-3.20369e-07
2.74804e-07
0.0129924
3.1272e-07
0.0129924
-2.7552e-07
0.0129923
-3.12696e-07
2.75514e-07
0.0132871
3.05181e-07
0.0132871
-2.75216e-07
0.0132871
-3.05157e-07
2.7521e-07
0.0135841
2.97657e-07
0.0135841
-2.74511e-07
0.0135841
-2.97634e-07
2.74504e-07
0.0138835
2.8988e-07
0.0138835
-2.74081e-07
0.0138835
-2.89857e-07
2.74074e-07
0.0141855
2.81301e-07
0.0141855
-2.7456e-07
0.0141855
-2.81279e-07
2.74554e-07
0.0144904
2.70977e-07
0.0144904
-2.76275e-07
0.0144904
-2.70954e-07
2.76269e-07
0.0147984
2.5757e-07
0.0147984
-2.78798e-07
0.0147984
-2.57548e-07
2.78792e-07
0.0151096
2.39631e-07
0.0151096
-2.80338e-07
0.0151096
-2.39609e-07
2.80332e-07
0.0154241
2.16278e-07
0.0154241
-2.77175e-07
0.0154241
-2.16256e-07
2.77168e-07
0.0157421
1.88273e-07
0.0157421
-2.63493e-07
0.0157421
-1.88251e-07
2.63486e-07
0.0160637
1.59097e-07
0.0160636
-2.32257e-07
0.0160636
-1.59075e-07
2.3225e-07
0.016389
1.34911e-07
0.0163889
-1.77986e-07
0.0163889
-1.3489e-07
1.77979e-07
0.0167182
1.2131e-07
0.0167181
-1.02385e-07
0.0167181
-1.21288e-07
1.02378e-07
0.0170517
1.13713e-07
0.0170516
-2.37834e-08
0.0170516
-1.13692e-07
2.37766e-08
0.0173898
1.05756e-07
0.0173897
4.34788e-08
0.0173897
-1.05735e-07
-4.34857e-08
0.0177328
9.77449e-08
0.0177327
1.00212e-07
0.0177327
-9.77238e-08
-1.00219e-07
0.0180809
9.00562e-08
0.0180808
1.47316e-07
0.0180808
-9.00351e-08
-1.47324e-07
0.0184341
8.30505e-08
0.0184341
1.85846e-07
0.0184341
-8.30296e-08
-1.85854e-07
0.0187927
7.70223e-08
0.0187926
2.16974e-07
0.0187926
-7.70014e-08
-2.16981e-07
0.0191567
7.22154e-08
0.0191567
2.41876e-07
0.0191567
-7.21948e-08
-2.41884e-07
0.0195264
6.8827e-08
0.0195263
2.61622e-07
0.0195263
-6.88065e-08
-2.6163e-07
0.0199017
6.70003e-08
0.0199017
2.77089e-07
0.0199017
-6.698e-08
-2.77096e-07
0.020283
6.68318e-08
0.020283
2.88933e-07
0.020283
-6.68116e-08
-2.8894e-07
0.0206702
6.83895e-08
0.0206702
2.97586e-07
0.0206702
-6.83696e-08
-2.97593e-07
0.0210636
7.17578e-08
0.0210636
3.03288e-07
0.0210636
-7.1738e-08
-3.03295e-07
0.0214633
7.70846e-08
0.0214633
3.06159e-07
0.0214633
-7.7065e-08
-3.06167e-07
0.0218693
8.46256e-08
0.0218693
3.06284e-07
0.0218693
-8.46063e-08
-3.06291e-07
0.0222819
9.4674e-08
0.0222819
3.03763e-07
0.0222819
-9.4655e-08
-3.03771e-07
0.0227011
1.07248e-07
0.0227011
2.9874e-07
0.0227011
-1.07229e-07
-2.98747e-07
0.0231271
1.21284e-07
0.0231271
2.91474e-07
0.0231271
-1.21265e-07
-2.91482e-07
0.0235599
1.35686e-07
0.02356
2.82012e-07
0.02356
-1.35668e-07
-2.82019e-07
0.0239998
1.50118e-07
0.0239999
2.70122e-07
0.0239999
-1.501e-07
-2.70129e-07
0.0244469
1.64163e-07
0.0244469
2.55733e-07
0.0244469
-1.64146e-07
-2.5574e-07
0.0249012
1.77399e-07
0.0249012
2.39046e-07
0.0249012
-1.77382e-07
-2.39053e-07
0.0253629
1.89361e-07
0.0253629
2.20581e-07
0.0253629
-1.89344e-07
-2.20588e-07
0.025832
1.99496e-07
0.025832
2.01248e-07
0.025832
-1.9948e-07
-2.01255e-07
0.0263087
2.07307e-07
0.0263088
1.823e-07
0.0263088
-2.07292e-07
-1.82306e-07
0.0267931
2.12879e-07
0.0267932
1.65046e-07
0.0267932
-2.12864e-07
-1.65052e-07
0.0272853
2.18418e-07
0.0272853
1.50075e-07
0.0272853
-2.18403e-07
-1.50081e-07
0.0277853
2.24932e-07
0.0277853
1.37331e-07
0.0277854
-2.24918e-07
-1.37336e-07
0.0282933
2.3117e-07
0.0282933
1.27213e-07
0.0282933
-2.31157e-07
-1.27218e-07
0.0288092
2.37268e-07
0.0288092
1.20544e-07
0.0288093
-2.37255e-07
-1.20549e-07
0.0293332
2.44443e-07
0.0293332
1.17596e-07
0.0293333
-2.4443e-07
-1.17601e-07
0.0298654
2.53036e-07
0.0298654
1.17143e-07
0.0298654
-2.53024e-07
-1.17148e-07
0.0304056
2.609e-07
0.0304056
1.16407e-07
0.0304056
-2.60888e-07
-1.16411e-07
0.030954
2.65125e-07
0.030954
1.13754e-07
0.030954
-2.65114e-07
-1.13758e-07
0.0315105
2.61177e-07
0.0315105
1.08572e-07
0.0315105
-2.61166e-07
-1.08575e-07
0.0320751
2.51079e-07
0.0320751
1.02008e-07
0.0320751
-2.51069e-07
-1.02011e-07
0.0326477
2.38401e-07
0.0326477
9.4856e-08
0.0326477
-2.38392e-07
-9.48592e-08
0.0332282
2.18078e-07
0.0332283
8.56519e-08
0.0332282
-2.18069e-07
-8.56548e-08
0.0338166
1.94398e-07
0.0338166
7.4005e-08
0.0338166
-1.94389e-07
-7.40077e-08
0.0344125
1.75307e-07
0.0344125
6.12878e-08
0.0344125
-1.75299e-07
-6.12905e-08
0.0350158
1.60598e-07
0.0350158
4.99532e-08
0.0350158
-1.6059e-07
-4.99558e-08
0.0356261
1.48927e-07
0.0356261
4.15894e-08
0.0356261
-1.4892e-07
-4.1592e-08
0.036243
1.38973e-07
0.036243
3.69871e-08
0.036243
-1.38966e-07
-3.69897e-08
0.036866
1.2992e-07
0.036866
3.60856e-08
0.036866
-1.29914e-07
-3.60884e-08
0.0374945
1.21327e-07
0.0374945
3.79924e-08
0.0374945
-1.21321e-07
-3.79952e-08
0.0381279
1.12937e-07
0.0381279
4.16513e-08
0.0381279
-1.12931e-07
-4.16542e-08
0.0387652
1.04685e-07
0.0387652
4.62529e-08
0.0387652
-1.04679e-07
-4.62558e-08
0.0394054
9.66343e-08
0.0394054
5.07699e-08
0.0394054
-9.66292e-08
-5.07729e-08
0.0400476
8.87335e-08
0.0400476
5.37372e-08
0.0400476
-8.87287e-08
-5.37402e-08
0.0406904
8.0356e-08
0.0406904
5.38629e-08
0.0406904
-8.03516e-08
-5.3866e-08
0.0413326
7.02406e-08
0.0413326
5.12924e-08
0.0413325
-7.02365e-08
-5.12956e-08
0.0419727
5.67756e-08
0.0419727
4.82572e-08
0.0419727
-5.67719e-08
-4.82603e-08
0.0426095
3.83117e-08
0.0426095
4.14982e-08
0.0426095
-3.8309e-08
-4.15007e-08
0.0432415
1.89265e-08
0.0432415
2.49989e-08
0.0432415
-1.89254e-08
-2.5e-08
0.0438674
0.0438674
0.0438674
)
;

boundaryField
{
    inlet
    {
        type            cyclic;
        value           nonuniform List<scalar> 
100
(
-0.0438674
-0.0432415
-0.0426095
-0.0419727
-0.0413325
-0.0406904
-0.0400476
-0.0394054
-0.0387652
-0.0381279
-0.0374945
-0.036866
-0.036243
-0.0356261
-0.0350158
-0.0344125
-0.0338166
-0.0332282
-0.0326477
-0.0320751
-0.0315105
-0.030954
-0.0304056
-0.0298654
-0.0293333
-0.0288092
-0.0282933
-0.0277853
-0.0272853
-0.0267931
-0.0263087
-0.025832
-0.0253629
-0.0249012
-0.0244469
-0.0239999
-0.02356
-0.0231271
-0.0227011
-0.0222819
-0.0218693
-0.0214633
-0.0210636
-0.0206702
-0.020283
-0.0199017
-0.0195264
-0.0191567
-0.0187927
-0.0184341
-0.0180808
-0.0177328
-0.0173898
-0.0170517
-0.0167182
-0.0163889
-0.0160636
-0.0157421
-0.0154241
-0.0151096
-0.0147984
-0.0144904
-0.0141855
-0.0138835
-0.0135841
-0.0132871
-0.0129923
-0.0126995
-0.0124084
-0.0121186
-0.0118298
-0.0115418
-0.011254
-0.0109661
-0.0106777
-0.0103882
-0.0100971
-0.00980385
-0.00950775
-0.00920805
-0.00890389
-0.00859431
-0.00827816
-0.00795414
-0.0076207
-0.00727602
-0.00691793
-0.00654392
-0.00615111
-0.0057362
-0.0052954
-0.00482294
-0.00431249
-0.00376242
-0.00317896
-0.00257715
-0.00197532
-0.00138678
-0.000817343
-0.000268233
)
;
    }
    outlet
    {
        type            cyclic;
        value           nonuniform List<scalar> 
100
(
0.0438674
0.0432415
0.0426095
0.0419727
0.0413325
0.0406904
0.0400476
0.0394054
0.0387652
0.0381279
0.0374945
0.036866
0.036243
0.0356261
0.0350158
0.0344125
0.0338166
0.0332282
0.0326477
0.0320751
0.0315105
0.030954
0.0304056
0.0298654
0.0293333
0.0288092
0.0282933
0.0277853
0.0272853
0.0267931
0.0263087
0.025832
0.0253629
0.0249012
0.0244469
0.0239999
0.02356
0.0231271
0.0227011
0.0222819
0.0218693
0.0214633
0.0210636
0.0206702
0.020283
0.0199017
0.0195264
0.0191567
0.0187927
0.0184341
0.0180808
0.0177328
0.0173898
0.0170517
0.0167182
0.0163889
0.0160636
0.0157421
0.0154241
0.0151096
0.0147984
0.0144904
0.0141855
0.0138835
0.0135841
0.0132871
0.0129923
0.0126995
0.0124084
0.0121186
0.0118298
0.0115418
0.011254
0.0109661
0.0106777
0.0103882
0.0100971
0.00980385
0.00950775
0.00920805
0.00890389
0.00859431
0.00827816
0.00795414
0.0076207
0.00727602
0.00691793
0.00654392
0.00615111
0.0057362
0.0052954
0.00482294
0.00431249
0.00376242
0.00317896
0.00257715
0.00197532
0.00138678
0.000817343
0.000268233
)
;
    }
    fixedWalls-bottom
    {
        type            calculated;
        value           uniform 0;
    }
    fixedWalls-top
    {
        type            symmetry;
        value           uniform 0;
    }
    frontAndBack
    {
        type            empty;
        value           nonuniform List<scalar> 0();
    }
}


// ************************************************************************* //
