/*--------------------------------*- C++ -*----------------------------------*\
  =========                 |
  \\      /  F ield         | OpenFOAM: The Open Source CFD Toolbox
   \\    /   O peration     | Website:  https://openfoam.org
    \\  /    A nd           | Version:  10
     \\/     M anipulation  |
\*---------------------------------------------------------------------------*/
FoamFile
{
    format      ascii;
    class       volScalarField;
    location    "7500";
    object      k;
}
// * * * * * * * * * * * * * * * * * * * * * * * * * * * * * * * * * * * * * //

dimensions      [0 2 -2 0 0 0 0];

internalField   nonuniform List<scalar> 
400
(
8.8089e-14
8.80089e-14
8.79679e-14
8.80193e-14
2.64251e-12
2.6401e-12
2.63887e-12
2.64041e-12
1.87129e-11
1.86959e-11
1.86872e-11
1.86981e-11
6.8029e-11
6.79669e-11
6.79353e-11
6.79749e-11
1.76012e-10
1.75851e-10
1.75769e-10
1.75872e-10
3.72729e-10
3.72388e-10
3.72214e-10
3.72431e-10
6.92642e-10
6.92009e-10
6.91687e-10
6.92089e-10
1.17462e-09
1.17355e-09
1.173e-09
1.17368e-09
1.86206e-09
1.86035e-09
1.85949e-09
1.86056e-09
2.80293e-09
2.80038e-09
2.79907e-09
2.80068e-09
4.04988e-09
4.04618e-09
4.0443e-09
4.04662e-09
5.65986e-09
5.65471e-09
5.65207e-09
5.65529e-09
7.69352e-09
7.68653e-09
7.68295e-09
7.68728e-09
1.02138e-08
1.02046e-08
1.01998e-08
1.02055e-08
1.3284e-08
1.3272e-08
1.32658e-08
1.32731e-08
1.69647e-08
1.69496e-08
1.69417e-08
1.69508e-08
2.13106e-08
2.12919e-08
2.12819e-08
2.12933e-08
2.63667e-08
2.6344e-08
2.63318e-08
2.63456e-08
3.21651e-08
3.21381e-08
3.21231e-08
3.21397e-08
3.87214e-08
3.869e-08
3.8672e-08
3.86916e-08
4.60336e-08
4.59978e-08
4.59765e-08
4.59995e-08
5.40812e-08
5.40414e-08
5.40164e-08
5.40429e-08
6.2826e-08
6.27826e-08
6.27538e-08
6.2784e-08
7.22134e-08
7.21671e-08
7.21342e-08
7.21682e-08
8.2174e-08
8.21259e-08
8.20887e-08
8.21266e-08
9.26248e-08
9.2576e-08
9.25344e-08
9.25764e-08
1.03468e-07
1.0342e-07
1.03374e-07
1.0342e-07
1.14588e-07
1.14542e-07
1.14492e-07
1.14542e-07
1.25841e-07
1.258e-07
1.25745e-07
1.25799e-07
1.37126e-07
1.3709e-07
1.37031e-07
1.37088e-07
1.48364e-07
1.48333e-07
1.48272e-07
1.48332e-07
1.59482e-07
1.59457e-07
1.59393e-07
1.59456e-07
1.7041e-07
1.70391e-07
1.70325e-07
1.70391e-07
1.81084e-07
1.8107e-07
1.81003e-07
1.81071e-07
1.91443e-07
1.91435e-07
1.91368e-07
1.91437e-07
2.01462e-07
2.01458e-07
2.01388e-07
2.0146e-07
2.11224e-07
2.11222e-07
2.11149e-07
2.11225e-07
2.20787e-07
2.20787e-07
2.20711e-07
2.2079e-07
2.30193e-07
2.30192e-07
2.30112e-07
2.30196e-07
2.39465e-07
2.39464e-07
2.3938e-07
2.39469e-07
2.48618e-07
2.48616e-07
2.48528e-07
2.48621e-07
2.57658e-07
2.57655e-07
2.57562e-07
2.57661e-07
2.66584e-07
2.66579e-07
2.66481e-07
2.66585e-07
2.75389e-07
2.75383e-07
2.75281e-07
2.75391e-07
2.84067e-07
2.84059e-07
2.83952e-07
2.84068e-07
2.92604e-07
2.92595e-07
2.92483e-07
2.92605e-07
3.00988e-07
3.00978e-07
3.0086e-07
3.00989e-07
3.09202e-07
3.09191e-07
3.09067e-07
3.09203e-07
3.1723e-07
3.17217e-07
3.17087e-07
3.17232e-07
3.25052e-07
3.25037e-07
3.24902e-07
3.25055e-07
3.32648e-07
3.32633e-07
3.3249e-07
3.32653e-07
3.39998e-07
3.39981e-07
3.39832e-07
3.40004e-07
3.47079e-07
3.47059e-07
3.46904e-07
3.47087e-07
3.53865e-07
3.53844e-07
3.53681e-07
3.53876e-07
3.60333e-07
3.60309e-07
3.6014e-07
3.60346e-07
3.66454e-07
3.66429e-07
3.66252e-07
3.6647e-07
3.72201e-07
3.72173e-07
3.71989e-07
3.72219e-07
3.77543e-07
3.77513e-07
3.77321e-07
3.77563e-07
3.82448e-07
3.82416e-07
3.82216e-07
3.82469e-07
3.86884e-07
3.8685e-07
3.86642e-07
3.86904e-07
3.90815e-07
3.90778e-07
3.90561e-07
3.90831e-07
3.94204e-07
3.94164e-07
3.93939e-07
3.94218e-07
3.97012e-07
3.96968e-07
3.96735e-07
3.97026e-07
3.992e-07
3.99151e-07
3.98909e-07
3.99214e-07
4.00723e-07
4.00669e-07
4.00419e-07
4.00739e-07
4.01538e-07
4.01479e-07
4.0122e-07
4.01556e-07
4.01599e-07
4.01535e-07
4.01268e-07
4.01619e-07
4.00859e-07
4.0079e-07
4.00516e-07
4.00882e-07
3.99272e-07
3.99199e-07
3.98918e-07
3.99298e-07
3.96789e-07
3.96712e-07
3.96428e-07
3.96819e-07
3.93365e-07
3.93285e-07
3.92998e-07
3.93398e-07
3.88954e-07
3.88872e-07
3.88584e-07
3.8899e-07
3.83511e-07
3.83428e-07
3.83142e-07
3.8355e-07
3.76994e-07
3.76912e-07
3.7663e-07
3.77035e-07
3.69359e-07
3.69281e-07
3.69004e-07
3.694e-07
3.60558e-07
3.60488e-07
3.60218e-07
3.60598e-07
3.50535e-07
3.50475e-07
3.50213e-07
3.5057e-07
3.3921e-07
3.39162e-07
3.38903e-07
3.39235e-07
3.26464e-07
3.26429e-07
3.26159e-07
3.26469e-07
3.12309e-07
3.12282e-07
3.12004e-07
3.12296e-07
2.9683e-07
2.96807e-07
2.96522e-07
2.96798e-07
2.80122e-07
2.80102e-07
2.79808e-07
2.80072e-07
2.62303e-07
2.62282e-07
2.61979e-07
2.62232e-07
2.43539e-07
2.43518e-07
2.43206e-07
2.43448e-07
2.2408e-07
2.24059e-07
2.23738e-07
2.23969e-07
2.04209e-07
2.04187e-07
2.03868e-07
2.04078e-07
1.84441e-07
1.84424e-07
1.84115e-07
1.84295e-07
1.65191e-07
1.65182e-07
1.64888e-07
1.65034e-07
1.46807e-07
1.46807e-07
1.46531e-07
1.46642e-07
1.29578e-07
1.2959e-07
1.29335e-07
1.29413e-07
1.13744e-07
1.1377e-07
1.13535e-07
1.13585e-07
9.94794e-08
9.95197e-08
9.93063e-08
9.93338e-08
8.68923e-08
8.69453e-08
8.67519e-08
8.6765e-08
7.60212e-08
7.6084e-08
7.59083e-08
7.59133e-08
6.68496e-08
6.69187e-08
6.67581e-08
6.67598e-08
5.93307e-08
5.94031e-08
5.92552e-08
5.92564e-08
5.34057e-08
5.3479e-08
5.33415e-08
5.33438e-08
4.90153e-08
4.9088e-08
4.89587e-08
4.89626e-08
4.61088e-08
4.61805e-08
4.6057e-08
4.60621e-08
4.46543e-08
4.47252e-08
4.46046e-08
4.46104e-08
)
;

boundaryField
{
    inlet
    {
        type            cyclic;
    }
    outlet
    {
        type            cyclic;
    }
    fixedWalls-bottom
    {
        type            kqRWallFunction;
        value           nonuniform List<scalar> 4(8.8089e-14 8.80089e-14 8.79679e-14 8.80193e-14);
    }
    fixedWalls-top
    {
        type            symmetry;
    }
    frontAndBack
    {
        type            empty;
    }
}


// ************************************************************************* //
