/*--------------------------------*- C++ -*----------------------------------*\
  =========                 |
  \\      /  F ield         | OpenFOAM: The Open Source CFD Toolbox
   \\    /   O peration     | Website:  https://openfoam.org
    \\  /    A nd           | Version:  10
     \\/     M anipulation  |
\*---------------------------------------------------------------------------*/
FoamFile
{
    format      ascii;
    class       volScalarField;
    location    "578";
    object      k;
}
// * * * * * * * * * * * * * * * * * * * * * * * * * * * * * * * * * * * * * //

dimensions      [0 2 -2 0 0 0 0];

internalField   nonuniform List<scalar> 
200
(
0.000419898
0.000419895
0.000419886
0.000419884
0.00529014
0.00529011
0.00529004
0.00529002
0.00684726
0.00684724
0.00684715
0.00684714
0.00731139
0.00731137
0.00731128
0.00731126
0.0074659
0.00746589
0.00746581
0.00746579
0.00751149
0.00751148
0.00751142
0.0075114
0.00750363
0.00750363
0.00750359
0.00750356
0.00746524
0.00746524
0.00746521
0.00746519
0.00740736
0.00740736
0.00740733
0.00740732
0.00733594
0.00733595
0.00733593
0.00733593
0.00725448
0.00725449
0.00725447
0.00725448
0.00716514
0.00716514
0.00716513
0.00716514
0.00706933
0.00706932
0.00706931
0.00706933
0.006968
0.00696798
0.00696799
0.00696801
0.00686184
0.00686182
0.00686183
0.00686185
0.00675133
0.0067513
0.00675133
0.00675134
0.00663684
0.00663681
0.00663684
0.00663685
0.00651866
0.00651863
0.00651867
0.00651868
0.00639703
0.006397
0.00639703
0.00639705
0.00627215
0.00627212
0.00627215
0.00627216
0.0061442
0.00614418
0.0061442
0.0061442
0.00601336
0.00601334
0.00601336
0.00601336
0.00587981
0.0058798
0.00587981
0.00587981
0.00574373
0.00574372
0.00574372
0.00574372
0.00560531
0.0056053
0.0056053
0.00560529
0.00546476
0.00546475
0.00546475
0.00546474
0.00532231
0.0053223
0.0053223
0.00532229
0.00517822
0.00517821
0.00517821
0.0051782
0.00503278
0.00503278
0.00503278
0.00503276
0.00488632
0.00488632
0.00488632
0.0048863
0.00473922
0.00473921
0.00473921
0.00473919
0.00459187
0.00459187
0.00459187
0.00459184
0.00444476
0.00444475
0.00444476
0.00444473
0.00429839
0.00429838
0.00429839
0.00429836
0.00415333
0.00415333
0.00415333
0.0041533
0.00401023
0.00401023
0.00401023
0.0040102
0.00386976
0.00386976
0.00386976
0.00386973
0.00373269
0.00373269
0.00373269
0.00373266
0.00359981
0.00359981
0.00359981
0.00359978
0.003472
0.003472
0.00347201
0.00347198
0.00335019
0.00335018
0.00335019
0.00335016
0.00323534
0.00323534
0.00323535
0.00323531
0.00312849
0.00312848
0.00312849
0.00312846
0.00303071
0.0030307
0.0030307
0.00303068
0.0029431
0.00294311
0.0029431
0.00294308
0.00286685
0.00286687
0.00286685
0.00286683
0.00280316
0.00280317
0.00280316
0.00280314
0.00275331
0.00275331
0.0027533
0.00275328
0.00271862
0.00271862
0.00271862
0.00271859
0.00270051
0.00270052
0.00270051
0.00270048
)
;

boundaryField
{
    inlet
    {
        type            cyclic;
    }
    outlet
    {
        type            cyclic;
    }
    fixedWalls-bottom
    {
        type            kqRWallFunction;
        value           nonuniform List<scalar> 4(0.000419898 0.000419895 0.000419886 0.000419884);
    }
    fixedWalls-top
    {
        type            symmetry;
    }
    frontAndBack
    {
        type            empty;
    }
}


// ************************************************************************* //
