/*--------------------------------*- C++ -*----------------------------------*\
  =========                 |
  \\      /  F ield         | OpenFOAM: The Open Source CFD Toolbox
   \\    /   O peration     | Website:  https://openfoam.org
    \\  /    A nd           | Version:  10
     \\/     M anipulation  |
\*---------------------------------------------------------------------------*/
FoamFile
{
    format      ascii;
    class       volScalarField;
    location    "578";
    object      nut;
}
// * * * * * * * * * * * * * * * * * * * * * * * * * * * * * * * * * * * * * //

dimensions      [0 2 -1 0 0 0 0];

internalField   nonuniform List<scalar> 
200
(
2.01613e-06
2.01612e-06
2.01608e-06
2.01607e-06
8.57967e-05
8.57959e-05
8.57946e-05
8.57944e-05
0.000219996
0.000219996
0.000219993
0.000219992
0.000381321
0.000381316
0.000381308
0.000381308
0.000549237
0.000549232
0.000549221
0.000549219
0.000723179
0.000723176
0.000723161
0.00072316
0.000900724
0.000900721
0.000900708
0.000900706
0.00108051
0.0010805
0.00108049
0.00108049
0.00126169
0.00126168
0.00126168
0.00126168
0.0014437
0.0014437
0.00144369
0.0014437
0.00162615
0.00162615
0.00162614
0.00162616
0.00180873
0.00180873
0.00180873
0.00180875
0.00199119
0.0019912
0.00199119
0.00199123
0.00217336
0.00217335
0.00217337
0.00217341
0.00235505
0.00235505
0.00235506
0.00235512
0.00253613
0.00253616
0.00253615
0.00253623
0.00271651
0.00271653
0.00271654
0.00271663
0.00289612
0.0028961
0.00289615
0.00289623
0.00307486
0.00307485
0.00307494
0.00307499
0.00325275
0.00325274
0.00325283
0.00325288
0.00342976
0.00342975
0.00342987
0.00342986
0.00360588
0.00360586
0.00360597
0.00360594
0.00378103
0.00378102
0.00378109
0.00378105
0.00395512
0.00395511
0.00395516
0.0039551
0.0041281
0.00412806
0.0041281
0.00412798
0.00429984
0.00429978
0.00429982
0.00429963
0.00447029
0.00447019
0.00447024
0.00446997
0.00463937
0.00463924
0.0046393
0.00463895
0.00480704
0.00480686
0.00480694
0.00480651
0.00497325
0.00497303
0.00497313
0.00497261
0.00513796
0.00513769
0.00513783
0.0051372
0.00530114
0.00530081
0.00530098
0.00530025
0.00546273
0.00546235
0.00546255
0.00546171
0.00562267
0.00562223
0.00562248
0.00562151
0.00578088
0.00578036
0.00578067
0.00577957
0.00593722
0.00593662
0.00593699
0.00593574
0.00609151
0.00609082
0.00609127
0.00608985
0.00624346
0.00624268
0.00624323
0.00624163
0.0063927
0.00639181
0.00639247
0.00639067
0.00653868
0.00653768
0.00653845
0.00653647
0.00668065
0.00667954
0.00668032
0.00667834
0.00681765
0.00681645
0.00681696
0.0068153
0.00694829
0.00694715
0.00694723
0.006946
0.00707054
0.00707019
0.00706983
0.00706873
0.00718347
0.0071838
0.00718248
0.00718165
0.00728442
0.0072839
0.00728337
0.00728246
0.00737066
0.00737004
0.00736938
0.00736849
0.0074393
0.00743894
0.00743779
0.00743688
0.00748742
0.00748814
0.0074855
0.0074846
0.00751223
0.00751274
0.00751033
0.00750875
)
;

boundaryField
{
    inlet
    {
        type            cyclic;
    }
    outlet
    {
        type            cyclic;
    }
    fixedWalls-bottom
    {
        type            nutkWallFunction;
        Cmu             0.09;
        kappa           0.41;
        E               9.8;
        value           uniform 0;
    }
    fixedWalls-top
    {
        type            symmetry;
    }
    frontAndBack
    {
        type            empty;
    }
}


// ************************************************************************* //
