/*--------------------------------*- C++ -*----------------------------------*\
  =========                 |
  \\      /  F ield         | OpenFOAM: The Open Source CFD Toolbox
   \\    /   O peration     | Website:  https://openfoam.org
    \\  /    A nd           | Version:  10
     \\/     M anipulation  |
\*---------------------------------------------------------------------------*/
FoamFile
{
    format      ascii;
    class       volScalarField;
    location    "578";
    object      omega;
}
// * * * * * * * * * * * * * * * * * * * * * * * * * * * * * * * * * * * * * //

dimensions      [0 0 -1 0 0 0 0];

internalField   nonuniform List<scalar> 
200
(
208.269
208.269
208.269
208.269
61.659
61.6593
61.6593
61.6593
30.6831
30.6833
30.6834
30.6834
19.1739
19.174
19.1742
19.1742
13.5932
13.5933
13.5935
13.5935
10.3868
10.3868
10.3869
10.3869
8.33067
8.33069
8.33076
8.33076
6.90902
6.90903
6.90906
6.90905
5.87099
5.87101
5.87102
5.871
5.08134
5.08135
5.08135
5.08133
4.46114
4.46114
4.46115
4.4611
3.96143
3.96142
3.96142
3.96138
3.5503
3.55028
3.55029
3.55023
3.2061
3.2061
3.20608
3.20603
2.91367
2.91366
2.91365
2.91359
2.66206
2.66202
2.66203
2.66196
2.44315
2.44312
2.44312
2.44305
2.25083
2.25083
2.2508
2.25074
2.08043
2.08043
2.08037
2.08035
1.92826
1.92826
1.92821
1.92819
1.79143
1.79144
1.79138
1.79138
1.66765
1.66766
1.66761
1.66763
1.55508
1.55508
1.55506
1.55507
1.45222
1.45222
1.45221
1.45223
1.35784
1.35785
1.35784
1.35788
1.27092
1.27094
1.27093
1.27098
1.1906
1.19062
1.19061
1.19068
1.11615
1.11618
1.11616
1.11624
1.04696
1.047
1.04698
1.04707
0.982522
0.982565
0.982544
0.982643
0.922393
0.92244
0.922416
0.922524
0.866205
0.866258
0.86623
0.866345
0.813652
0.813708
0.813677
0.813798
0.764474
0.764534
0.7645
0.764627
0.718461
0.718524
0.718487
0.718619
0.675439
0.675506
0.675465
0.675602
0.635272
0.635343
0.635297
0.63544
0.597855
0.59793
0.597878
0.598027
0.563113
0.56319
0.563133
0.563287
0.530995
0.531075
0.531014
0.531169
0.501476
0.501559
0.501502
0.501646
0.474554
0.474637
0.474602
0.474713
0.450253
0.450326
0.450322
0.450398
0.428638
0.428659
0.428681
0.428744
0.409705
0.409687
0.409761
0.409805
0.393559
0.39359
0.393616
0.393662
0.380314
0.380346
0.380379
0.380422
0.370103
0.370121
0.370178
0.370219
0.363092
0.363057
0.363184
0.363224
0.359482
0.359458
0.359573
0.359644
)
;

boundaryField
{
    inlet
    {
        type            cyclic;
    }
    outlet
    {
        type            cyclic;
    }
    fixedWalls-bottom
    {
        beta1           0.075;
        blended         0;
        type            omegaWallFunction;
        value           nonuniform List<scalar> 4(208.269 208.269 208.269 208.269);
    }
    fixedWalls-top
    {
        type            symmetry;
    }
    frontAndBack
    {
        type            empty;
    }
}


// ************************************************************************* //
