/*--------------------------------*- C++ -*----------------------------------*\
  =========                 |
  \\      /  F ield         | OpenFOAM: The Open Source CFD Toolbox
   \\    /   O peration     | Website:  https://openfoam.org
    \\  /    A nd           | Version:  10
     \\/     M anipulation  |
\*---------------------------------------------------------------------------*/
FoamFile
{
    format      ascii;
    class       volScalarField;
    location    "578";
    object      p;
}
// * * * * * * * * * * * * * * * * * * * * * * * * * * * * * * * * * * * * * //

dimensions      [0 2 -2 0 0 0 0];

internalField   nonuniform List<scalar> 
200
(
-1.02913e-12
6.0698e-08
1.07663e-08
-5.07317e-08
-3.84268e-11
6.03303e-08
1.0801e-08
-5.03637e-08
8.36176e-11
5.95794e-08
1.06763e-08
-4.96102e-08
4.77302e-10
5.82699e-08
1.02808e-08
-4.82979e-08
1.1412e-09
5.64684e-08
9.61488e-09
-4.64939e-08
1.94551e-09
5.4676e-08
8.80786e-09
-4.46985e-08
2.68772e-09
5.31132e-08
8.06294e-09
-4.31327e-08
3.18278e-09
5.18716e-08
7.56492e-09
-4.18875e-08
3.3277e-09
5.08821e-08
7.41686e-09
-4.08944e-08
3.09185e-09
5.00374e-08
7.6496e-09
-4.0046e-08
2.50087e-09
4.92801e-08
8.23693e-09
-3.92846e-08
1.62462e-09
4.86436e-08
9.11001e-09
-3.86443e-08
4.16809e-10
4.81197e-08
1.03137e-08
-3.8116e-08
-1.27136e-09
4.76117e-08
1.19986e-08
-3.7604e-08
-3.39205e-09
4.71213e-08
1.41147e-08
-3.71088e-08
-5.70424e-09
4.67991e-08
1.64232e-08
-3.67826e-08
-8.30119e-09
4.66705e-08
1.90153e-08
-3.66492e-08
-1.15487e-08
4.66356e-08
2.22586e-08
-3.66099e-08
-1.52677e-08
4.6994e-08
2.59726e-08
-3.69634e-08
-1.9014e-08
4.77829e-08
2.97144e-08
-3.77475e-08
-2.24848e-08
4.88599e-08
3.31802e-08
-3.88195e-08
-2.54087e-08
4.99859e-08
3.60992e-08
-3.99405e-08
-2.77017e-08
5.06949e-08
3.83872e-08
-4.06444e-08
-2.93074e-08
5.08968e-08
3.99877e-08
-4.08409e-08
-3.01012e-08
5.05989e-08
4.07763e-08
-4.05378e-08
-2.99699e-08
4.982e-08
4.06396e-08
-3.97533e-08
-2.89407e-08
4.8649e-08
3.9605e-08
-3.85767e-08
-2.7126e-08
4.72102e-08
3.7785e-08
-3.71323e-08
-2.46174e-08
4.55782e-08
3.5271e-08
-3.54943e-08
-2.14783e-08
4.37934e-08
3.2127e-08
-3.37039e-08
-1.77607e-08
4.18839e-08
2.84042e-08
-3.17882e-08
-1.35043e-08
3.98713e-08
2.41434e-08
-2.97696e-08
-8.74437e-09
3.77787e-08
1.93792e-08
-2.76709e-08
-3.51653e-09
3.56286e-08
1.41475e-08
-2.55145e-08
2.14057e-09
3.3449e-08
8.48723e-09
-2.33288e-08
8.18772e-09
3.12801e-08
2.43689e-09
-2.11532e-08
1.4579e-08
2.91876e-08
-3.95649e-09
-1.90545e-08
2.12555e-08
2.72823e-08
-1.06353e-08
-1.71422e-08
2.81164e-08
2.57142e-08
-1.74975e-08
-1.55676e-08
3.49502e-08
2.4504e-08
-2.43324e-08
-1.43506e-08
4.13384e-08
2.30904e-08
-3.07214e-08
-1.29304e-08
4.68332e-08
2.02301e-08
-3.62165e-08
-1.0064e-08
5.15903e-08
1.55505e-08
-4.09742e-08
-5.37826e-09
5.67249e-08
1.121e-08
-4.61086e-08
-1.03251e-09
6.33325e-08
7.88284e-09
-5.27163e-08
2.30015e-09
6.90449e-08
4.49213e-09
-5.84283e-08
5.69561e-09
7.26224e-08
1.08083e-09
-6.20055e-08
9.11119e-09
7.60673e-08
-2.09722e-09
-6.54502e-08
1.22928e-08
8.0206e-08
-4.70734e-09
-6.95886e-08
1.49055e-08
8.38304e-08
-6.35021e-09
-7.32119e-08
1.65496e-08
)
;

boundaryField
{
    inlet
    {
        type            cyclic;
    }
    outlet
    {
        type            cyclic;
    }
    fixedWalls-bottom
    {
        type            zeroGradient;
    }
    fixedWalls-top
    {
        type            symmetry;
    }
    frontAndBack
    {
        type            empty;
    }
}


// ************************************************************************* //
