/*--------------------------------*- C++ -*----------------------------------*\
  =========                 |
  \\      /  F ield         | OpenFOAM: The Open Source CFD Toolbox
   \\    /   O peration     | Website:  https://openfoam.org
    \\  /    A nd           | Version:  10
     \\/     M anipulation  |
\*---------------------------------------------------------------------------*/
FoamFile
{
    format      ascii;
    class       surfaceScalarField;
    location    "578";
    object      phi;
}
// * * * * * * * * * * * * * * * * * * * * * * * * * * * * * * * * * * * * * //

dimensions      [0 3 -1 0 0 0 0];

internalField   nonuniform List<scalar> 
346
(
0.00396654
-1.41468e-08
0.00396653
8.1522e-09
0.00396651
1.42725e-08
-8.17131e-09
0.00867737
-2.81006e-08
0.00867736
1.06665e-08
0.00867735
2.82162e-08
-1.07165e-08
0.0112182
-3.73937e-08
0.0112182
1.39727e-08
0.0112182
3.75036e-08
-1.40392e-08
0.0129425
-4.19931e-08
0.0129425
1.56502e-08
0.0129424
4.21012e-08
-1.57266e-08
0.0143171
-4.23113e-08
0.0143171
1.55593e-08
0.0143171
4.24164e-08
-1.56408e-08
0.0155182
-3.93086e-08
0.0155182
1.52763e-08
0.0155182
3.94134e-08
-1.53617e-08
0.0166226
-3.42972e-08
0.0166225
1.56291e-08
0.0166226
3.43993e-08
-1.57162e-08
0.017671
-2.85121e-08
0.017671
1.71585e-08
0.017671
2.86141e-08
-1.72467e-08
0.0186875
-2.27817e-08
0.0186875
1.97774e-08
0.0186875
2.2881e-08
-1.98659e-08
0.0196873
-1.7509e-08
0.0196873
2.31034e-08
0.0196873
1.7608e-08
-2.31916e-08
0.0206809
-1.27644e-08
0.0206809
2.66763e-08
0.0206809
1.28608e-08
-2.67641e-08
0.0216756
-8.25075e-09
0.0216756
3.03587e-08
0.0216756
8.34662e-09
-3.04454e-08
0.0226771
-3.73294e-09
0.0226771
3.39915e-08
0.0226771
3.82636e-09
-3.40775e-08
0.0236897
5.68806e-10
0.0236897
3.71305e-08
0.0236897
-4.76175e-10
-3.72149e-08
0.0247169
4.5347e-09
0.0247169
3.93304e-08
0.0247169
-4.44441e-09
-3.9414e-08
0.0257616
8.5663e-09
0.0257616
4.05758e-08
0.0257616
-8.47707e-09
-4.06574e-08
0.0268262
1.27256e-08
0.0268262
4.07981e-08
0.0268262
-1.26384e-08
-4.08791e-08
0.027913
1.58791e-08
0.027913
3.94376e-08
0.027913
-1.57933e-08
-3.95163e-08
0.0290238
1.72364e-08
0.0290238
3.68454e-08
0.0290238
-1.71524e-08
-3.69235e-08
0.0301602
1.66053e-08
0.0301602
3.35225e-08
0.0301602
-1.6523e-08
-3.3598e-08
0.031324
1.4084e-08
0.031324
2.99646e-08
0.031324
-1.40033e-08
-3.00397e-08
0.0325165
1.01641e-08
0.0325165
2.66368e-08
0.0325165
-1.00853e-08
-2.67092e-08
0.0337391
5.34253e-09
0.0337391
2.31807e-08
0.0337391
-5.26519e-09
-2.32528e-08
0.0349931
1.72622e-11
0.0349931
1.9413e-08
0.0349931
5.79123e-11
-1.94821e-08
0.0362796
-5.30412e-09
0.0362796
1.53367e-08
0.0362796
5.37798e-09
-1.54055e-08
0.0375999
-1.01072e-08
0.0375999
1.09883e-08
0.0375999
1.01786e-08
-1.1054e-08
0.038955
-1.40158e-08
0.038955
6.51318e-09
0.038955
1.40861e-08
-6.57861e-09
0.0403461
-1.69739e-08
0.0403461
2.13934e-09
0.0403461
1.70416e-08
-2.20164e-09
0.041774
-1.90404e-08
0.041774
-1.9413e-09
0.041774
1.91069e-08
1.87945e-09
0.0432399
-2.0374e-08
0.0432399
-5.62666e-09
0.0432399
2.04379e-08
5.56796e-09
0.0447446
-2.11116e-08
0.0447446
-8.86815e-09
0.0447446
2.1174e-08
8.81007e-09
0.0462889
-2.13889e-08
0.0462889
-1.16833e-08
0.0462889
2.14488e-08
1.16283e-08
0.0478738
-2.12977e-08
0.0478738
-1.41019e-08
0.0478738
2.13557e-08
1.40479e-08
0.0494999
-2.0905e-08
0.0494999
-1.61886e-08
0.0494999
2.09605e-08
1.61375e-08
0.0511679
-2.02743e-08
0.0511679
-1.79812e-08
0.0511679
2.03275e-08
1.79316e-08
0.0528785
-1.94501e-08
0.0528785
-1.9506e-08
0.0528785
1.95009e-08
1.94592e-08
0.0546322
-1.85285e-08
0.0546322
-2.06773e-08
0.0546322
1.85765e-08
2.06325e-08
0.0564295
-1.7588e-08
0.0564295
-2.1261e-08
0.0564295
1.76334e-08
2.12188e-08
0.0582706
-1.67705e-08
0.0582706
-2.07485e-08
0.0582706
1.68127e-08
2.07088e-08
0.060156
-1.61261e-08
0.060156
-1.84974e-08
0.060156
1.61656e-08
1.84604e-08
0.0620856
-1.58132e-08
0.0620856
-1.44663e-08
0.0620856
1.5849e-08
1.44325e-08
0.0640596
-1.61342e-08
0.0640596
-1.05699e-08
0.0640596
1.6167e-08
1.05389e-08
0.0660778
-1.73672e-08
0.0660778
-9.73069e-09
0.0660777
1.73959e-08
9.7033e-09
0.0681398
-1.88751e-08
0.0681398
-1.01301e-08
0.0681398
1.89005e-08
1.01059e-08
0.0702452
-1.74251e-08
0.0702452
-9.2778e-09
0.0702452
1.74465e-08
9.25722e-09
0.0723931
-1.44904e-08
0.0723931
-7.8025e-09
0.0723931
1.45079e-08
7.78555e-09
0.0745825
-1.31405e-08
0.0745825
-6.28299e-09
0.0745825
1.31538e-08
6.26996e-09
0.076812
-1.19631e-08
0.076812
-4.80924e-09
0.076812
1.19719e-08
4.80052e-09
0.0790796
-7.74965e-09
0.0790796
-2.8522e-09
0.0790796
7.75435e-09
2.84751e-09
0.0813827
0.0813827
0.0813827
)
;

boundaryField
{
    inlet
    {
        type            cyclic;
        value           nonuniform List<scalar> 
50
(
-0.0813827
-0.0790796
-0.076812
-0.0745825
-0.0723931
-0.0702452
-0.0681398
-0.0660777
-0.0640596
-0.0620856
-0.060156
-0.0582706
-0.0564295
-0.0546322
-0.0528785
-0.0511679
-0.0494999
-0.0478738
-0.0462889
-0.0447446
-0.0432399
-0.041774
-0.0403461
-0.038955
-0.0375999
-0.0362796
-0.0349931
-0.0337391
-0.0325165
-0.031324
-0.0301602
-0.0290238
-0.027913
-0.0268262
-0.0257616
-0.0247169
-0.0236897
-0.0226771
-0.0216756
-0.0206809
-0.0196873
-0.0186875
-0.017671
-0.0166226
-0.0155182
-0.0143171
-0.0129425
-0.0112182
-0.00867735
-0.00396652
)
;
    }
    outlet
    {
        type            cyclic;
        value           nonuniform List<scalar> 
50
(
0.0813827
0.0790796
0.076812
0.0745825
0.0723931
0.0702452
0.0681398
0.0660777
0.0640596
0.0620856
0.060156
0.0582706
0.0564295
0.0546322
0.0528785
0.0511679
0.0494999
0.0478738
0.0462889
0.0447446
0.0432399
0.041774
0.0403461
0.038955
0.0375999
0.0362796
0.0349931
0.0337391
0.0325165
0.031324
0.0301602
0.0290238
0.027913
0.0268262
0.0257616
0.0247169
0.0236897
0.0226771
0.0216756
0.0206809
0.0196873
0.0186875
0.017671
0.0166226
0.0155182
0.0143171
0.0129425
0.0112182
0.00867735
0.00396652
)
;
    }
    fixedWalls-bottom
    {
        type            calculated;
        value           uniform 0;
    }
    fixedWalls-top
    {
        type            symmetry;
        value           uniform 0;
    }
    frontAndBack
    {
        type            empty;
        value           nonuniform List<scalar> 0();
    }
}


// ************************************************************************* //
