/*--------------------------------*- C++ -*----------------------------------*\
  =========                 |
  \\      /  F ield         | OpenFOAM: The Open Source CFD Toolbox
   \\    /   O peration     | Website:  https://openfoam.org
    \\  /    A nd           | Version:  10
     \\/     M anipulation  |
\*---------------------------------------------------------------------------*/
FoamFile
{
    format      ascii;
    class       volSymmTensorField;
    location    "578";
    object      R;
}
// * * * * * * * * * * * * * * * * * * * * * * * * * * * * * * * * * * * * * //

dimensions      [0 2 -2 0 0 0 0];

internalField   nonuniform List<symmTensor> 
200
(
(0.000279932 -7.32736e-05 -0 0.000279932 -0 0.000279932)
(0.00027993 -7.32731e-05 -0 0.00027993 -0 0.00027993)
(0.000279924 -7.32713e-05 -0 0.000279924 -0 0.000279924)
(0.000279923 -7.32708e-05 -0 0.000279923 -0 0.000279923)
(0.00352676 -0.00163788 -0 0.00352676 -0 0.00352676)
(0.00352674 -0.00163786 -0 0.00352674 -0 0.00352674)
(0.00352669 -0.00163784 -0 0.00352669 -0 0.00352669)
(0.00352668 -0.00163784 -0 0.00352668 -0 0.00352668)
(0.00456484 -0.00212266 -0 0.00456484 -0 0.00456484)
(0.00456483 -0.00212265 -0 0.00456483 -0 0.00456483)
(0.00456477 -0.00212263 -0 0.00456477 -0 0.00456477)
(0.00456476 -0.00212262 -0 0.00456476 -0 0.00456476)
(0.00487426 -0.00225928 -0 0.00487426 -0 0.00487426)
(0.00487424 -0.00225924 -0 0.00487424 -0 0.00487424)
(0.00487418 -0.00225921 -0 0.00487418 -0 0.00487418)
(0.00487418 -0.00225921 -0 0.00487418 -0 0.00487418)
(0.00497727 -0.00228961 -0 0.00497727 -0 0.00497727)
(0.00497726 -0.00228958 -0 0.00497726 -0 0.00497726)
(0.00497721 -0.00228955 -0 0.00497721 -0 0.00497721)
(0.0049772 -0.00228955 -0 0.0049772 -0 0.0049772)
(0.00500766 -0.00230037 -0 0.00500766 -0 0.00500766)
(0.00500766 -0.00230035 -0 0.00500766 -0 0.00500766)
(0.00500762 -0.00230031 -0 0.00500762 -0 0.00500762)
(0.0050076 -0.00230032 -0 0.0050076 -0 0.0050076)
(0.00500242 -0.0022976 -0 0.00500242 -0 0.00500242)
(0.00500242 -0.00229758 -0 0.00500242 -0 0.00500242)
(0.00500239 -0.00229755 -0 0.00500239 -0 0.00500239)
(0.00500238 -0.00229755 -0 0.00500238 -0 0.00500238)
(0.00497683 -0.00228687 -0 0.00497682 -0 0.00497682)
(0.00497683 -0.00228686 -0 0.00497683 -0 0.00497683)
(0.0049768 -0.00228684 -0 0.00497681 -0 0.0049768)
(0.00497679 -0.00228684 -0 0.00497679 -0 0.00497679)
(0.00493824 -0.00227089 -0 0.00493824 -0 0.00493824)
(0.00493824 -0.00227088 -0 0.00493824 -0 0.00493824)
(0.00493822 -0.00227087 -0 0.00493822 -0 0.00493822)
(0.00493822 -0.00227087 -0 0.00493822 -0 0.00493822)
(0.00489063 -0.00225111 -0 0.00489063 -0 0.00489063)
(0.00489063 -0.00225111 -0 0.00489063 -0 0.00489063)
(0.00489062 -0.00225109 -0 0.00489062 -0 0.00489062)
(0.00489062 -0.0022511 -0 0.00489062 -0 0.00489062)
(0.00483632 -0.00222839 -0 0.00483632 -0 0.00483632)
(0.00483633 -0.00222839 -0 0.00483632 -0 0.00483633)
(0.00483631 -0.00222838 -0 0.00483631 -0 0.00483631)
(0.00483632 -0.0022284 -0 0.00483632 -0 0.00483632)
(0.00477676 -0.00220328 -0 0.00477676 -0 0.00477676)
(0.00477676 -0.00220329 -0 0.00477676 -0 0.00477676)
(0.00477675 -0.00220328 -0 0.00477675 -0 0.00477675)
(0.00477676 -0.00220331 -0 0.00477676 -0 0.00477676)
(0.00471289 -0.00217612 -0 0.00471288 -0 0.00471288)
(0.00471288 -0.00217613 -0 0.00471288 -0 0.00471288)
(0.00471287 -0.00217613 -0 0.00471288 -0 0.00471287)
(0.00471289 -0.00217617 -0 0.00471289 -0 0.00471289)
(0.00464534 -0.00214717 -0 0.00464533 -0 0.00464533)
(0.00464532 -0.00214717 -0 0.00464532 -0 0.00464532)
(0.00464533 -0.00214718 -0 0.00464533 -0 0.00464533)
(0.00464534 -0.00214722 -0 0.00464534 -0 0.00464534)
(0.00457456 -0.00211656 -0 0.00457456 -0 0.00457456)
(0.00457454 -0.00211656 -0 0.00457454 -0 0.00457454)
(0.00457455 -0.00211658 -0 0.00457456 -0 0.00457455)
(0.00457456 -0.00211662 -0 0.00457457 -0 0.00457457)
(0.00450089 -0.0020844 -0 0.00450088 -0 0.00450089)
(0.00450087 -0.00208442 -0 0.00450087 -0 0.00450087)
(0.00450088 -0.00208444 -0 0.00450089 -0 0.00450088)
(0.00450089 -0.00208448 -0 0.00450089 -0 0.00450089)
(0.00442456 -0.00205079 -0 0.00442456 -0 0.00442456)
(0.00442454 -0.00205081 -0 0.00442454 -0 0.00442454)
(0.00442456 -0.00205083 -0 0.00442456 -0 0.00442456)
(0.00442457 -0.00205087 -0 0.00442457 -0 0.00442457)
(0.00434578 -0.00201577 -0 0.00434577 -0 0.00434578)
(0.00434576 -0.00201577 -0 0.00434576 -0 0.00434576)
(0.00434578 -0.00201581 -0 0.00434578 -0 0.00434578)
(0.00434578 -0.00201585 -0 0.00434578 -0 0.00434578)
(0.00426469 -0.00197935 -0 0.00426469 -0 0.00426469)
(0.00426467 -0.00197936 -0 0.00426467 -0 0.00426467)
(0.00426469 -0.00197942 -0 0.00426469 -0 0.00426469)
(0.0042647 -0.00197943 -0 0.0042647 -0 0.0042647)
(0.00418143 -0.00194158 -0 0.00418143 -0 0.00418143)
(0.00418141 -0.00194159 -0 0.00418142 -0 0.00418142)
(0.00418143 -0.00194163 -0 0.00418143 -0 0.00418143)
(0.00418144 -0.00194165 -0 0.00418144 -0 0.00418144)
(0.00409613 -0.00190246 -0 0.00409613 -0 0.00409613)
(0.00409612 -0.00190246 -0 0.00409612 -0 0.00409612)
(0.00409613 -0.00190252 -0 0.00409613 -0 0.00409613)
(0.00409614 -0.0019025 -0 0.00409613 -0 0.00409614)
(0.00400891 -0.00186198 -0 0.00400891 -0 0.00400891)
(0.00400889 -0.00186198 -0 0.0040089 -0 0.0040089)
(0.00400891 -0.00186203 -0 0.00400891 -0 0.00400891)
(0.00400891 -0.00186201 -0 0.00400891 -0 0.00400891)
(0.00391987 -0.00182013 -0 0.00391988 -0 0.00391987)
(0.00391986 -0.00182013 -0 0.00391987 -0 0.00391986)
(0.00391987 -0.00182017 -0 0.00391987 -0 0.00391987)
(0.00391987 -0.00182014 -0 0.00391987 -0 0.00391987)
(0.00382915 -0.0017769 -0 0.00382915 -0 0.00382915)
(0.00382914 -0.00177689 -0 0.00382915 -0 0.00382914)
(0.00382915 -0.00177692 -0 0.00382915 -0 0.00382915)
(0.00382915 -0.00177688 -0 0.00382915 -0 0.00382915)
(0.00373687 -0.00173226 -0 0.00373687 -0 0.00373687)
(0.00373686 -0.00173224 -0 0.00373687 -0 0.00373686)
(0.00373687 -0.00173227 -0 0.00373687 -0 0.00373687)
(0.00373687 -0.00173221 -0 0.00373686 -0 0.00373686)
(0.00364317 -0.00168619 -0 0.00364317 -0 0.00364317)
(0.00364316 -0.00168616 -0 0.00364317 -0 0.00364317)
(0.00364317 -0.00168618 -0 0.00364317 -0 0.00364317)
(0.00364316 -0.00168611 -0 0.00364316 -0 0.00364316)
(0.0035482 -0.00163866 -0 0.00354821 -0 0.0035482)
(0.0035482 -0.00163862 -0 0.0035482 -0 0.0035482)
(0.0035482 -0.00163864 -0 0.0035482 -0 0.0035482)
(0.00354819 -0.00163855 -0 0.00354819 -0 0.00354819)
(0.00345214 -0.00158965 -0 0.00345215 -0 0.00345215)
(0.00345214 -0.00158959 -0 0.00345214 -0 0.00345214)
(0.00345214 -0.00158962 -0 0.00345214 -0 0.00345214)
(0.00345213 -0.00158951 -0 0.00345213 -0 0.00345213)
(0.00335519 -0.00153911 -0 0.00335519 -0 0.00335519)
(0.00335518 -0.00153905 -0 0.00335519 -0 0.00335518)
(0.00335519 -0.00153907 -0 0.00335518 -0 0.00335519)
(0.00335517 -0.00153895 -0 0.00335517 -0 0.00335517)
(0.00325755 -0.00148702 -0 0.00325755 -0 0.00325755)
(0.00325755 -0.00148695 -0 0.00325755 -0 0.00325755)
(0.00325755 -0.00148698 -0 0.00325755 -0 0.00325755)
(0.00325753 -0.00148683 -0 0.00325753 -0 0.00325753)
(0.00315948 -0.00143334 -0 0.00315948 -0 0.00315948)
(0.00315947 -0.00143326 -0 0.00315948 -0 0.00315948)
(0.00315948 -0.0014333 -0 0.00315948 -0 0.00315948)
(0.00315946 -0.00143313 -0 0.00315946 -0 0.00315946)
(0.00306125 -0.00137803 -0 0.00306125 -0 0.00306125)
(0.00306125 -0.00137795 -0 0.00306125 -0 0.00306125)
(0.00306125 -0.00137799 -0 0.00306125 -0 0.00306125)
(0.00306123 -0.0013778 -0 0.00306123 -0 0.00306123)
(0.00296317 -0.00132105 -0 0.00296317 -0 0.00296317)
(0.00296317 -0.00132096 -0 0.00296317 -0 0.00296317)
(0.00296317 -0.00132101 -0 0.00296317 -0 0.00296317)
(0.00296315 -0.00132081 -0 0.00296315 -0 0.00296315)
(0.00286559 -0.00126236 -0 0.00286559 -0 0.00286559)
(0.00286559 -0.00126226 -0 0.00286559 -0 0.00286559)
(0.00286559 -0.00126231 -0 0.00286559 -0 0.00286559)
(0.00286557 -0.0012621 -0 0.00286557 -0 0.00286557)
(0.00276889 -0.00120191 -0 0.00276889 -0 0.00276889)
(0.00276889 -0.00120181 -0 0.00276889 -0 0.00276889)
(0.00276889 -0.00120187 -0 0.00276889 -0 0.00276889)
(0.00276887 -0.00120164 -0 0.00276887 -0 0.00276887)
(0.00267349 -0.00113966 -0 0.00267349 -0 0.00267349)
(0.00267348 -0.00113955 -0 0.00267349 -0 0.00267348)
(0.00267349 -0.00113961 -0 0.00267349 -0 0.00267349)
(0.00267347 -0.00113938 -0 0.00267347 -0 0.00267347)
(0.00257984 -0.00107556 -0 0.00257984 -0 0.00257984)
(0.00257984 -0.00107544 -0 0.00257984 -0 0.00257984)
(0.00257984 -0.00107551 -0 0.00257984 -0 0.00257984)
(0.00257982 -0.00107527 -0 0.00257982 -0 0.00257982)
(0.00248846 -0.00100955 -0 0.00248846 -0 0.00248846)
(0.00248846 -0.00100943 -0 0.00248846 -0 0.00248846)
(0.00248846 -0.0010095 -0 0.00248846 -0 0.00248846)
(0.00248844 -0.00100925 -0 0.00248844 -0 0.00248844)
(0.00239988 -0.00094158 -0 0.00239987 -0 0.00239987)
(0.00239987 -0.000941457 -0 0.00239987 -0 0.00239987)
(0.00239988 -0.000941535 -0 0.00239988 -0 0.00239988)
(0.00239986 -0.000941288 -0 0.00239986 -0 0.00239986)
(0.00231467 -0.000871601 -0 0.00231467 -0 0.00231467)
(0.00231467 -0.000871479 -0 0.00231467 -0 0.00231467)
(0.00231467 -0.000871557 -0 0.00231467 -0 0.00231467)
(0.00231465 -0.000871316 -0 0.00231465 -0 0.00231465)
(0.00223346 -0.00079955 -0 0.00223346 -0 0.00223346)
(0.00223346 -0.000799433 -0 0.00223345 -0 0.00223346)
(0.00223346 -0.000799504 -0 0.00223346 -0 0.00223346)
(0.00223344 -0.000799284 -0 0.00223344 -0 0.00223344)
(0.00215689 -0.00072537 -0 0.0021569 -0 0.00215689)
(0.00215689 -0.000725262 -0 0.00215689 -0 0.00215689)
(0.0021569 -0.00072531 -0 0.0021569 -0 0.0021569)
(0.00215687 -0.000725135 -0 0.00215688 -0 0.00215688)
(0.00208566 -0.000649003 -0 0.00208566 -0 0.00208566)
(0.00208566 -0.000648907 -0 0.00208566 -0 0.00208566)
(0.00208566 -0.00064892 -0 0.00208566 -0 0.00208566)
(0.00208564 -0.000648795 -0 0.00208564 -0 0.00208564)
(0.00202047 -0.00057035 -0 0.00202047 -0 0.00202047)
(0.00202047 -0.000570302 -0 0.00202047 -0 0.00202047)
(0.00202047 -0.000570293 -0 0.00202047 -0 0.00202047)
(0.00202045 -0.000570194 -0 0.00202045 -0 0.00202045)
(0.00196207 -0.000489411 -0 0.00196207 -0 0.00196207)
(0.00196207 -0.000489405 -0 0.00196207 -0 0.00196207)
(0.00196207 -0.000489337 -0 0.00196207 -0 0.00196207)
(0.00196205 -0.000489273 -0 0.00196205 -0 0.00196205)
(0.00191123 -0.000406083 -0 0.00191123 -0 0.00191123)
(0.00191125 -0.000406048 -0 0.00191125 -0 0.00191125)
(0.00191123 -0.000406022 -0 0.00191123 -0 0.00191123)
(0.00191122 -0.000405967 -0 0.00191122 -0 0.00191122)
(0.00186878 -0.000320302 -0 0.00186877 -0 0.00186877)
(0.00186878 -0.000320281 -0 0.00186878 -0 0.00186878)
(0.00186877 -0.000320248 -0 0.00186877 -0 0.00186877)
(0.00186876 -0.000320207 -0 0.00186876 -0 0.00186876)
(0.00183554 -0.000232004 -0 0.00183554 -0 0.00183554)
(0.00183554 -0.000231986 -0 0.00183554 -0 0.00183554)
(0.00183554 -0.000231955 -0 0.00183554 -0 0.00183554)
(0.00183552 -0.00023193 -0 0.00183552 -0 0.00183552)
(0.00181241 -0.00014112 -0 0.00181241 -0 0.00181241)
(0.00181241 -0.00014112 -0 0.00181241 -0 0.00181241)
(0.00181241 -0.00014108 -0 0.00181241 -0 0.00181241)
(0.00181239 -0.000141071 -0 0.00181239 -0 0.00181239)
(0.00180034 -4.75116e-05 -0 0.00180034 -0 0.00180034)
(0.00180035 -4.75081e-05 -0 0.00180034 -0 0.00180034)
(0.00180034 -4.74972e-05 -0 0.00180034 -0 0.00180034)
(0.00180032 -4.74918e-05 -0 0.00180032 -0 0.00180032)
)
;

boundaryField
{
    inlet
    {
        type            cyclic;
    }
    outlet
    {
        type            cyclic;
    }
    fixedWalls-bottom
    {
        type            kqRWallFunction;
        value           nonuniform List<symmTensor> 4((0.000279932 -0 -0 0.000279932 -0 0.000279932) (0.00027993 -0 -0 0.00027993 -0 0.00027993) (0.000279924 -0 -0 0.000279924 -0 0.000279924) (0.000279923 -0 -0 0.000279923 -0 0.000279923));
    }
    fixedWalls-top
    {
        type            symmetry;
    }
    frontAndBack
    {
        type            empty;
    }
}


// ************************************************************************* //
