/*--------------------------------*- C++ -*----------------------------------*\
  =========                 |
  \\      /  F ield         | OpenFOAM: The Open Source CFD Toolbox
   \\    /   O peration     | Website:  https://openfoam.org
    \\  /    A nd           | Version:  10
     \\/     M anipulation  |
\*---------------------------------------------------------------------------*/
FoamFile
{
    format      ascii;
    class       volVectorField;
    location    "578";
    object      U;
}
// * * * * * * * * * * * * * * * * * * * * * * * * * * * * * * * * * * * * * //

dimensions      [0 1 -1 0 0 0 0];

internalField   nonuniform List<vector> 
200
(
(0.215274 -8.39436e-09 0)
(0.215274 6.06737e-09 0)
(0.215273 8.48659e-09 0)
(0.215273 -6.0801e-09 0)
(0.457806 -2.24532e-08 0)
(0.457806 8.00247e-09 0)
(0.457805 2.25704e-08 0)
(0.457805 -8.03456e-09 0)
(0.575347 -3.37793e-08 0)
(0.575347 1.27256e-08 0)
(0.575347 3.38929e-08 0)
(0.575346 -1.27845e-08 0)
(0.645262 -4.05119e-08 0)
(0.645262 1.37225e-08 0)
(0.645262 4.06205e-08 0)
(0.645262 -1.37957e-08 0)
(0.693885 -4.27611e-08 0)
(0.693885 1.53627e-08 0)
(0.693885 4.28668e-08 0)
(0.693885 -1.5442e-08 0)
(0.731115 -4.12013e-08 0)
(0.731115 1.52059e-08 0)
(0.731115 4.13061e-08 0)
(0.731115 -1.52894e-08 0)
(0.761301 -3.69845e-08 0)
(0.761301 1.52868e-08 0)
(0.761301 3.70879e-08 0)
(0.761302 -1.53731e-08 0)
(0.786744 -3.14381e-08 0)
(0.786744 1.62667e-08 0)
(0.786744 3.15401e-08 0)
(0.786744 -1.63544e-08 0)
(0.808791 -2.55674e-08 0)
(0.808791 1.83588e-08 0)
(0.808791 2.56681e-08 0)
(0.808792 -1.84473e-08 0)
(0.828295 -2.00645e-08 0)
(0.828295 2.13789e-08 0)
(0.828295 2.01636e-08 0)
(0.828295 -2.14672e-08 0)
(0.845825 -1.50771e-08 0)
(0.845825 2.48446e-08 0)
(0.845824 1.51749e-08 0)
(0.845825 -2.49327e-08 0)
(0.861779 -1.03954e-08 0)
(0.861778 2.86103e-08 0)
(0.861778 1.04915e-08 0)
(0.861779 -2.86975e-08 0)
(0.876445 -5.90986e-09 0)
(0.876445 3.23085e-08 0)
(0.876445 6.00444e-09 0)
(0.876446 -3.23949e-08 0)
(0.890041 -1.62665e-09 0)
(0.89004 3.57169e-08 0)
(0.89004 1.7195e-09 0)
(0.890041 -3.58022e-08 0)
(0.902728 2.50077e-09 0)
(0.902728 3.8396e-08 0)
(0.902728 -2.40954e-09 0)
(0.902728 -3.84801e-08 0)
(0.914637 6.70988e-09 0)
(0.914637 4.02763e-08 0)
(0.914637 -6.62036e-09 0)
(0.914637 -4.03591e-08 0)
(0.925868 1.08566e-08 0)
(0.925868 4.09915e-08 0)
(0.925868 -1.07688e-08 0)
(0.925868 -4.10729e-08 0)
(0.936502 1.44127e-08 0)
(0.936502 4.02761e-08 0)
(0.936502 -1.43265e-08 0)
(0.936502 -4.0356e-08 0)
(0.946606 1.69217e-08 0)
(0.946606 3.85387e-08 0)
(0.946606 -1.6837e-08 0)
(0.946606 -3.86171e-08 0)
(0.956232 1.72587e-08 0)
(0.956232 3.52712e-08 0)
(0.956233 -1.71755e-08 0)
(0.956232 -3.5348e-08 0)
(0.965426 1.56939e-08 0)
(0.965426 3.19958e-08 0)
(0.965427 -1.56122e-08 0)
(0.965426 -3.2071e-08 0)
(0.974224 1.2393e-08 0)
(0.974224 2.8373e-08 0)
(0.974224 -1.2313e-08 0)
(0.974224 -2.84466e-08 0)
(0.982656 7.88073e-09 0)
(0.982656 2.49266e-08 0)
(0.982656 -7.80247e-09 0)
(0.982656 -2.49986e-08 0)
(0.990748 2.66564e-09 0)
(0.990748 2.13251e-08 0)
(0.990748 -2.58924e-09 0)
(0.990747 -2.13955e-08 0)
(0.99852 -2.74693e-09 0)
(0.99852 1.73892e-08 0)
(0.99852 2.82155e-09 0)
(0.998519 -1.74581e-08 0)
(1.00599 -7.86012e-09 0)
(1.00599 1.31142e-08 0)
(1.00599 7.93282e-09 0)
(1.00599 -1.31814e-08 0)
(1.01317 -1.22621e-08 0)
(1.01317 8.67066e-09 0)
(1.01317 1.2333e-08 0)
(1.01317 -8.73625e-09 0)
(1.02008 -1.57002e-08 0)
(1.02008 4.2144e-09 0)
(1.02008 1.57692e-08 0)
(1.02008 -4.27824e-09 0)
(1.02672 -1.81851e-08 0)
(1.02672 -3.80875e-11 0)
(1.02672 1.82522e-08 0)
(1.02672 -2.39942e-11 0)
(1.0331 -1.98466e-08 0)
(1.0331 -3.93155e-09 0)
(1.0331 1.99118e-08 0)
(1.0331 3.87126e-09 0)
(1.03923 -2.08466e-08 0)
(1.03923 -7.3916e-09 0)
(1.03923 2.09097e-08 0)
(1.03923 7.33324e-09 0)
(1.04511 -2.13254e-08 0)
(1.04511 -1.04081e-08 0)
(1.04511 2.13866e-08 0)
(1.04511 1.03515e-08 0)
(1.05074 -2.13975e-08 0)
(1.05074 -1.30098e-08 0)
(1.05074 2.14564e-08 0)
(1.05074 1.29553e-08 0)
(1.05613 -2.11397e-08 0)
(1.05613 -1.52483e-08 0)
(1.05613 2.11966e-08 0)
(1.05613 1.51958e-08 0)
(1.06126 -2.06132e-08 0)
(1.06126 -1.71814e-08 0)
(1.06126 2.06676e-08 0)
(1.06126 1.71312e-08 0)
(1.06615 -1.98669e-08 0)
(1.06615 -1.88536e-08 0)
(1.06615 1.9919e-08 0)
(1.06615 1.88054e-08 0)
(1.07078 -1.89646e-08 0)
(1.07078 -2.02541e-08 0)
(1.07078 1.9014e-08 0)
(1.07078 2.02083e-08 0)
(1.07515 -1.79821e-08 0)
(1.07515 -2.12219e-08 0)
(1.07515 1.80288e-08 0)
(1.07515 2.11784e-08 0)
(1.07926 -1.70131e-08 0)
(1.07926 -2.12936e-08 0)
(1.07926 1.7057e-08 0)
(1.07926 2.12526e-08 0)
(1.0831 -1.61757e-08 0)
(1.0831 -1.97052e-08 0)
(1.0831 1.62165e-08 0)
(1.0831 1.9667e-08 0)
(1.08666 -1.57333e-08 0)
(1.08666 -1.62257e-08 0)
(1.08666 1.5771e-08 0)
(1.08666 1.61902e-08 0)
(1.08993 -1.60582e-08 0)
(1.08993 -1.24084e-08 0)
(1.08993 1.60924e-08 0)
(1.08993 1.23761e-08 0)
(1.09291 -1.71827e-08 0)
(1.09291 -1.05652e-08 0)
(1.09291 1.72135e-08 0)
(1.09291 1.05361e-08 0)
(1.09558 -1.8471e-08 0)
(1.09558 -9.42406e-09 0)
(1.09558 1.8498e-08 0)
(1.09558 9.39811e-09 0)
(1.09792 -1.72526e-08 0)
(1.09792 -9.9056e-09 0)
(1.09792 1.72756e-08 0)
(1.09792 9.88312e-09 0)
(1.09993 -1.66194e-08 0)
(1.09993 -8.67844e-09 0)
(1.09993 1.66386e-08 0)
(1.09993 8.65936e-09 0)
(1.10159 -1.41522e-08 0)
(1.10159 -7.11084e-09 0)
(1.10159 1.41672e-08 0)
(1.10159 7.09555e-09 0)
(1.10287 -1.28481e-08 0)
(1.10287 -5.77223e-09 0)
(1.10287 1.28587e-08 0)
(1.10287 5.76108e-09 0)
(1.10375 -9.8526e-09 0)
(1.10375 -4.12271e-09 0)
(1.10375 9.86171e-09 0)
(1.10375 4.11748e-09 0)
(1.10421 -4.17632e-09 0)
(1.10421 -1.50493e-09 0)
(1.10421 4.17649e-09 0)
(1.10421 1.50119e-09 0)
)
;

boundaryField
{
    inlet
    {
        type            cyclic;
    }
    outlet
    {
        type            cyclic;
    }
    fixedWalls-bottom
    {
        type            noSlip;
    }
    fixedWalls-top
    {
        type            symmetry;
    }
    frontAndBack
    {
        type            empty;
    }
}


// ************************************************************************* //
