/*--------------------------------*- C++ -*----------------------------------*\
  =========                 |
  \\      /  F ield         | OpenFOAM: The Open Source CFD Toolbox
   \\    /   O peration     | Website:  https://openfoam.org
    \\  /    A nd           | Version:  10
     \\/     M anipulation  |
\*---------------------------------------------------------------------------*/
FoamFile
{
    format      ascii;
    class       volScalarField;
    location    "7500";
    object      p;
}
// * * * * * * * * * * * * * * * * * * * * * * * * * * * * * * * * * * * * * //

dimensions      [0 2 -2 0 0 0 0];

internalField   nonuniform List<scalar> 
400
(
-5.2707e-18
-4.26447e-16
-2.55439e-16
8.77205e-17
-1.9278e-17
-4.25957e-16
-2.55544e-16
8.72072e-17
-2.24316e-17
-4.254e-16
-2.55764e-16
8.66395e-17
-2.21521e-17
-4.24893e-16
-2.55981e-16
8.60276e-17
-2.13093e-17
-4.24319e-16
-2.56313e-16
8.53851e-17
-2.04855e-17
-4.23745e-16
-2.56486e-16
8.47149e-17
-1.99282e-17
-4.23382e-16
-2.56627e-16
8.42576e-17
-1.93117e-17
-4.23113e-16
-2.56704e-16
8.38203e-17
-1.89252e-17
-4.23026e-16
-2.56758e-16
8.34953e-17
-1.83351e-17
-4.23189e-16
-2.56841e-16
8.34522e-17
-1.78717e-17
-4.23201e-16
-2.57015e-16
8.33303e-17
-1.73965e-17
-4.2327e-16
-2.5721e-16
8.33415e-17
-1.6903e-17
-4.23353e-16
-2.57312e-16
8.31893e-17
-1.63072e-17
-4.23209e-16
-2.57375e-16
8.27173e-17
-1.59153e-17
-4.23128e-16
-2.57315e-16
8.23216e-17
-1.50696e-17
-4.23232e-16
-2.57458e-16
8.18828e-17
-1.46827e-17
-4.23958e-16
-2.5736e-16
8.23028e-17
-1.42797e-17
-4.24601e-16
-2.56932e-16
8.23301e-17
-1.39769e-17
-4.256e-16
-2.56545e-16
8.25178e-17
-1.37378e-17
-4.26474e-16
-2.55991e-16
8.27441e-17
-1.38367e-17
-4.27645e-16
-2.54884e-16
8.31281e-17
-1.43943e-17
-4.27676e-16
-2.53257e-16
8.24183e-17
-1.5347e-17
-4.28146e-16
-2.5151e-16
8.24364e-17
-1.67311e-17
-4.28856e-16
-2.49518e-16
8.29709e-17
-1.81769e-17
-4.30052e-16
-2.47351e-16
8.3736e-17
-1.94214e-17
-4.31084e-16
-2.45455e-16
8.4386e-17
-2.05766e-17
-4.30952e-16
-2.44128e-16
8.40573e-17
-2.18329e-17
-4.30524e-16
-2.42331e-16
8.33385e-17
-2.28549e-17
-4.30008e-16
-2.40938e-16
8.27193e-17
-2.36834e-17
-4.29325e-16
-2.39501e-16
8.18743e-17
-2.40026e-17
-4.28127e-16
-2.38279e-16
7.99912e-17
-2.41368e-17
-4.26947e-16
-2.37216e-16
7.81919e-17
-2.51713e-17
-4.26537e-16
-2.35482e-16
7.72069e-17
-2.66954e-17
-4.27274e-16
-2.3324e-16
7.72562e-17
-2.86682e-17
-4.26993e-16
-2.30141e-16
7.57815e-17
-3.13652e-17
-4.25652e-16
-2.27452e-16
7.46583e-17
-3.39539e-17
-4.24034e-16
-2.24774e-16
7.33906e-17
-3.67151e-17
-4.22529e-16
-2.21671e-16
7.16896e-17
-4.03911e-17
-4.21534e-16
-2.17869e-16
7.03758e-17
-4.47209e-17
-4.20089e-16
-2.13346e-16
6.88985e-17
-4.86713e-17
-4.17505e-16
-2.09223e-16
6.65569e-17
-5.30052e-17
-4.16487e-16
-2.05387e-16
6.62882e-17
-5.72102e-17
-4.14648e-16
-2.01558e-16
6.4928e-17
-6.10643e-17
-4.12686e-16
-1.98011e-16
6.39032e-17
-6.38529e-17
-4.13263e-16
-1.9538e-16
6.49046e-17
-6.63157e-17
-4.13831e-16
-1.92609e-16
6.57423e-17
-6.82166e-17
-4.13441e-16
-1.91139e-16
6.64707e-17
-7.02615e-17
-4.11632e-16
-1.89136e-16
6.52367e-17
-7.31046e-17
-4.10319e-16
-1.8638e-16
6.4829e-17
-7.67348e-17
-4.09497e-16
-1.83591e-16
6.5402e-17
-8.02492e-17
-4.09013e-16
-1.81419e-16
6.63301e-17
-8.25851e-17
-4.07891e-16
-1.79116e-16
6.56254e-17
-8.35512e-17
-4.07227e-16
-1.76915e-16
6.46556e-17
-8.31886e-17
-4.04787e-16
-1.76879e-16
6.25468e-17
-8.1935e-17
-4.01564e-16
-1.77703e-16
5.89643e-17
-8.18568e-17
-3.96662e-16
-1.7671e-16
5.39048e-17
-8.49242e-17
-3.91607e-16
-1.7466e-16
4.90619e-17
-8.62949e-17
-3.88485e-16
-1.73003e-16
4.55822e-17
-8.56073e-17
-3.85803e-16
-1.73023e-16
4.22991e-17
-8.33098e-17
-3.83972e-16
-1.73624e-16
3.91682e-17
-8.20958e-17
-3.80976e-16
-1.74872e-16
3.62309e-17
-8.11978e-17
-3.78126e-16
-1.76047e-16
3.30662e-17
-8.05815e-17
-3.76682e-16
-1.75335e-16
3.00989e-17
-8.09928e-17
-3.74569e-16
-1.75026e-16
2.76501e-17
-8.31051e-17
-3.70131e-16
-1.73147e-16
2.39413e-17
-8.43925e-17
-3.67543e-16
-1.7172e-16
2.18276e-17
-8.66194e-17
-3.67398e-16
-1.69841e-16
2.20263e-17
-8.97833e-17
-3.67478e-16
-1.66097e-16
2.19922e-17
-9.31543e-17
-3.67741e-16
-1.62022e-16
2.21324e-17
-9.70843e-17
-3.67374e-16
-1.57764e-16
2.17139e-17
-1.00542e-16
-3.65484e-16
-1.54216e-16
2.04754e-17
-1.03879e-16
-3.65977e-16
-1.5039e-16
2.07089e-17
-1.05458e-16
-3.63805e-16
-1.48506e-16
1.88353e-17
-1.05643e-16
-3.6209e-16
-1.47227e-16
1.67918e-17
-1.0639e-16
-3.59343e-16
-1.45004e-16
1.30441e-17
-1.10829e-16
-3.54803e-16
-1.40367e-16
1.0101e-17
-1.17013e-16
-3.54549e-16
-1.32879e-16
1.0493e-17
-1.24277e-16
-3.56995e-16
-1.25954e-16
1.34696e-17
-1.32611e-16
-3.59384e-16
-1.19148e-16
1.78094e-17
-1.40187e-16
-3.59882e-16
-1.12447e-16
1.92267e-17
-1.4823e-16
-3.61157e-16
-1.06351e-16
2.14115e-17
-1.57908e-16
-3.615e-16
-9.79434e-17
2.37161e-17
-1.69202e-16
-3.60899e-16
-8.65057e-17
2.32908e-17
-1.82664e-16
-3.58154e-16
-7.39974e-17
2.18776e-17
-1.95435e-16
-3.5532e-16
-6.14777e-17
1.95425e-17
-2.0588e-16
-3.5048e-16
-5.12152e-17
1.45909e-17
-2.16284e-16
-3.46302e-16
-4.15311e-17
1.09862e-17
-2.2777e-16
-3.45612e-16
-3.20031e-17
1.30364e-17
-2.37095e-16
-3.44634e-16
-2.33268e-17
1.25513e-17
-2.45406e-16
-3.44291e-16
-1.59791e-17
1.22388e-17
-2.53273e-16
-3.46095e-16
-8.59403e-18
1.42427e-17
-2.59688e-16
-3.48577e-16
-2.35403e-18
1.74631e-17
-2.65734e-16
-3.49287e-16
2.76079e-18
1.93317e-17
-2.71441e-16
-3.48701e-16
7.62573e-18
1.98861e-17
-2.78349e-16
-3.49387e-16
1.25426e-17
2.27128e-17
-2.84463e-16
-3.49135e-16
1.73533e-17
2.37924e-17
-2.86381e-16
-3.48478e-16
1.83246e-17
2.46773e-17
-2.88106e-16
-3.47806e-16
2.12361e-17
2.39282e-17
-2.90138e-16
-3.45836e-16
2.35885e-17
2.20755e-17
-2.9097e-16
-3.4398e-16
2.4396e-17
1.93591e-17
)
;

boundaryField
{
    inlet
    {
        type            cyclic;
    }
    outlet
    {
        type            cyclic;
    }
    fixedWalls-bottom
    {
        type            zeroGradient;
    }
    fixedWalls-top
    {
        type            symmetry;
    }
    frontAndBack
    {
        type            empty;
    }
}


// ************************************************************************* //
