/*--------------------------------*- C++ -*----------------------------------*\
  =========                 |
  \\      /  F ield         | OpenFOAM: The Open Source CFD Toolbox
   \\    /   O peration     | Website:  https://openfoam.org
    \\  /    A nd           | Version:  10
     \\/     M anipulation  |
\*---------------------------------------------------------------------------*/
FoamFile
{
    format      ascii;
    class       volVectorField;
    location    "7500";
    object      U;
}
// * * * * * * * * * * * * * * * * * * * * * * * * * * * * * * * * * * * * * //

dimensions      [0 1 -1 0 0 0 0];

internalField   nonuniform List<vector> 
400
(
(0.00692015 5.74242e-18 0)
(0.00692015 8.31894e-20 0)
(0.00692015 7.3547e-21 0)
(0.00692015 -7.58469e-20 0)
(0.0207937 1.31923e-17 0)
(0.0207937 6.66614e-19 0)
(0.0207937 -1.90281e-19 0)
(0.0207937 -5.16669e-19 0)
(0.0347968 1.28099e-17 0)
(0.0347968 1.82868e-18 0)
(0.0347968 -5.17362e-19 0)
(0.0347968 -1.51625e-18 0)
(0.0489294 1.26779e-17 0)
(0.0489294 3.44501e-18 0)
(0.0489294 -1.06917e-18 0)
(0.0489294 -3.02461e-18 0)
(0.0631913 1.32686e-17 0)
(0.0631913 5.57181e-18 0)
(0.0631913 -1.90043e-18 0)
(0.0631913 -5.15412e-18 0)
(0.0775824 1.4402e-17 0)
(0.0775824 8.2555e-18 0)
(0.0775824 -3.12655e-18 0)
(0.0775824 -7.79563e-18 0)
(0.0921024 1.58631e-17 0)
(0.0921024 1.1708e-17 0)
(0.0921024 -4.75264e-18 0)
(0.0921024 -1.10316e-17 0)
(0.106751 1.75151e-17 0)
(0.106751 1.57126e-17 0)
(0.106751 -6.53785e-18 0)
(0.106751 -1.4744e-17 0)
(0.121528 1.92864e-17 0)
(0.121528 1.99134e-17 0)
(0.121528 -8.36305e-18 0)
(0.121528 -1.88677e-17 0)
(0.136433 2.13647e-17 0)
(0.136433 2.39041e-17 0)
(0.136433 -1.01471e-17 0)
(0.136433 -2.31958e-17 0)
(0.151466 2.36913e-17 0)
(0.151466 2.83104e-17 0)
(0.151466 -1.2362e-17 0)
(0.151466 -2.76387e-17 0)
(0.166625 2.63787e-17 0)
(0.166625 3.30804e-17 0)
(0.166625 -1.52963e-17 0)
(0.166625 -3.20062e-17 0)
(0.18191 2.94876e-17 0)
(0.18191 3.80226e-17 0)
(0.18191 -1.85794e-17 0)
(0.18191 -3.6634e-17 0)
(0.197322 3.2913e-17 0)
(0.197322 4.34459e-17 0)
(0.197322 -2.222e-17 0)
(0.197322 -4.16527e-17 0)
(0.212857 3.66951e-17 0)
(0.212857 4.8889e-17 0)
(0.212857 -2.63244e-17 0)
(0.212857 -4.67955e-17 0)
(0.228517 4.06446e-17 0)
(0.228517 5.49069e-17 0)
(0.228517 -3.05747e-17 0)
(0.228517 -5.24727e-17 0)
(0.2443 4.55115e-17 0)
(0.2443 6.07005e-17 0)
(0.2443 -3.52973e-17 0)
(0.2443 -5.81872e-17 0)
(0.260205 5.05776e-17 0)
(0.260205 6.58765e-17 0)
(0.260205 -4.04318e-17 0)
(0.260205 -6.3243e-17 0)
(0.27623 5.56268e-17 0)
(0.27623 7.10305e-17 0)
(0.27623 -4.64019e-17 0)
(0.27623 -6.74064e-17 0)
(0.292375 6.12851e-17 0)
(0.292375 7.56761e-17 0)
(0.292375 -5.28708e-17 0)
(0.292375 -7.14355e-17 0)
(0.308638 6.70064e-17 0)
(0.308638 7.99986e-17 0)
(0.308638 -5.92645e-17 0)
(0.308638 -7.53419e-17 0)
(0.325018 7.24536e-17 0)
(0.325018 8.35372e-17 0)
(0.325018 -6.5006e-17 0)
(0.325018 -7.89226e-17 0)
(0.341513 7.8554e-17 0)
(0.341513 8.60096e-17 0)
(0.341513 -7.0358e-17 0)
(0.341513 -8.22863e-17 0)
(0.358121 8.31569e-17 0)
(0.358121 8.73438e-17 0)
(0.358121 -7.42137e-17 0)
(0.358121 -8.43132e-17 0)
(0.374842 8.65283e-17 0)
(0.374842 8.85879e-17 0)
(0.374842 -7.71954e-17 0)
(0.374842 -8.59921e-17 0)
(0.391672 8.99513e-17 0)
(0.391672 8.90035e-17 0)
(0.391672 -8.00388e-17 0)
(0.391672 -8.64289e-17 0)
(0.40861 9.22438e-17 0)
(0.40861 8.87808e-17 0)
(0.40861 -8.25127e-17 0)
(0.40861 -8.56618e-17 0)
(0.425653 9.42679e-17 0)
(0.425653 8.84099e-17 0)
(0.425653 -8.52921e-17 0)
(0.425653 -8.48467e-17 0)
(0.4428 9.62625e-17 0)
(0.4428 8.77025e-17 0)
(0.4428 -8.81591e-17 0)
(0.4428 -8.36315e-17 0)
(0.460048 9.81276e-17 0)
(0.460048 8.72008e-17 0)
(0.460048 -9.10279e-17 0)
(0.460048 -8.22007e-17 0)
(0.477394 1.00943e-16 0)
(0.477394 8.85263e-17 0)
(0.477394 -9.44308e-17 0)
(0.477394 -8.25865e-17 0)
(0.494836 1.05525e-16 0)
(0.494836 9.13999e-17 0)
(0.494836 -9.95396e-17 0)
(0.494836 -8.47868e-17 0)
(0.512371 1.11708e-16 0)
(0.512371 9.52547e-17 0)
(0.512371 -1.05778e-16 0)
(0.512371 -8.85656e-17 0)
(0.529995 1.18471e-16 0)
(0.529995 9.84408e-17 0)
(0.529995 -1.11803e-16 0)
(0.529995 -9.19555e-17 0)
(0.547705 1.25606e-16 0)
(0.547705 1.00006e-16 0)
(0.547705 -1.18499e-16 0)
(0.547705 -9.34438e-17 0)
(0.565499 1.31241e-16 0)
(0.565499 1.01476e-16 0)
(0.565499 -1.24e-16 0)
(0.565499 -9.58896e-17 0)
(0.583373 1.34615e-16 0)
(0.583373 1.03383e-16 0)
(0.583373 -1.26422e-16 0)
(0.583373 -9.92673e-17 0)
(0.601322 1.37784e-16 0)
(0.601322 1.07029e-16 0)
(0.601322 -1.29049e-16 0)
(0.601322 -1.03278e-16 0)
(0.619343 1.39471e-16 0)
(0.619343 1.10418e-16 0)
(0.619343 -1.31404e-16 0)
(0.619343 -1.05957e-16 0)
(0.637432 1.37649e-16 0)
(0.637432 1.12768e-16 0)
(0.637432 -1.30421e-16 0)
(0.637432 -1.06806e-16 0)
(0.655584 1.34303e-16 0)
(0.655584 1.13982e-16 0)
(0.655584 -1.26697e-16 0)
(0.655584 -1.08846e-16 0)
(0.673795 1.31508e-16 0)
(0.673795 1.15448e-16 0)
(0.673795 -1.21952e-16 0)
(0.673795 -1.12908e-16 0)
(0.69206 1.25166e-16 0)
(0.69206 1.17203e-16 0)
(0.69206 -1.15278e-16 0)
(0.69206 -1.15313e-16 0)
(0.710374 1.14088e-16 0)
(0.710374 1.19121e-16 0)
(0.710374 -1.06486e-16 0)
(0.710374 -1.15668e-16 0)
(0.728732 1.04038e-16 0)
(0.728732 1.18261e-16 0)
(0.728732 -9.69114e-17 0)
(0.728732 -1.14631e-16 0)
(0.747128 9.58568e-17 0)
(0.747128 1.1375e-16 0)
(0.747128 -8.71805e-17 0)
(0.747128 -1.11755e-16 0)
(0.765557 8.89116e-17 0)
(0.765557 1.05838e-16 0)
(0.765557 -8.05091e-17 0)
(0.765557 -1.03688e-16 0)
(0.784012 8.38338e-17 0)
(0.784012 9.56962e-17 0)
(0.784012 -7.53578e-17 0)
(0.784012 -9.33574e-17 0)
(0.802488 8.01323e-17 0)
(0.802488 8.55356e-17 0)
(0.802488 -7.09766e-17 0)
(0.802488 -8.36243e-17 0)
(0.820978 7.74872e-17 0)
(0.820978 7.33511e-17 0)
(0.820978 -6.84084e-17 0)
(0.820978 -7.15846e-17 0)
(0.839475 7.38901e-17 0)
(0.839475 5.95085e-17 0)
(0.839475 -6.64351e-17 0)
(0.839475 -5.51495e-17 0)
(0.857972 6.8673e-17 0)
(0.857972 4.3287e-17 0)
(0.857972 -6.45495e-17 0)
(0.857972 -3.63112e-17 0)
(0.876462 6.40255e-17 0)
(0.876462 2.41154e-17 0)
(0.876462 -6.24667e-17 0)
(0.876462 -1.57627e-17 0)
(0.894936 6.35408e-17 0)
(0.894936 3.62776e-18 0)
(0.894936 -6.2375e-17 0)
(0.894936 6.05107e-18 0)
(0.913387 6.32505e-17 0)
(0.913387 -1.15179e-17 0)
(0.913387 -6.21714e-17 0)
(0.913387 2.35414e-17 0)
(0.931807 6.40909e-17 0)
(0.931807 -2.09967e-17 0)
(0.931807 -6.54335e-17 0)
(0.931807 3.73814e-17 0)
(0.950186 6.69668e-17 0)
(0.950186 -2.83725e-17 0)
(0.950186 -6.89948e-17 0)
(0.950186 4.41172e-17 0)
(0.968516 6.6569e-17 0)
(0.968516 -3.09714e-17 0)
(0.968516 -6.63727e-17 0)
(0.968516 4.45579e-17 0)
(0.986787 6.16857e-17 0)
(0.986787 -3.00667e-17 0)
(0.986787 -6.07962e-17 0)
(0.986787 4.48478e-17 0)
(1.00499 5.78826e-17 0)
(1.00499 -2.51974e-17 0)
(1.00499 -5.80991e-17 0)
(1.00499 4.12115e-17 0)
(1.02311 5.75787e-17 0)
(1.02311 -2.30867e-17 0)
(1.02311 -5.74469e-17 0)
(1.02311 4.01289e-17 0)
(1.04115 5.93091e-17 0)
(1.04115 -2.00487e-17 0)
(1.04115 -5.93125e-17 0)
(1.04115 3.76349e-17 0)
(1.05908 6.52096e-17 0)
(1.05908 -1.44998e-17 0)
(1.05908 -6.43592e-17 0)
(1.05908 2.87046e-17 0)
(1.0769 7.20454e-17 0)
(1.0769 -9.96585e-18 0)
(1.0769 -6.72709e-17 0)
(1.0769 1.92112e-17 0)
(1.0946 7.46534e-17 0)
(1.0946 -5.98992e-19 0)
(1.0946 -6.94216e-17 0)
(1.0946 8.52222e-18 0)
(1.11216 7.339e-17 0)
(1.11216 1.49276e-17 0)
(1.11216 -6.92595e-17 0)
(1.11216 -5.162e-18 0)
(1.12957 7.31041e-17 0)
(1.12957 3.37264e-17 0)
(1.12957 -7.00789e-17 0)
(1.12957 -2.34558e-17 0)
(1.14682 7.22395e-17 0)
(1.14682 4.14253e-17 0)
(1.14682 -6.8441e-17 0)
(1.14682 -3.361e-17 0)
(1.16389 7.10776e-17 0)
(1.16389 4.46259e-17 0)
(1.16389 -6.60625e-17 0)
(1.16389 -3.80526e-17 0)
(1.18077 6.66021e-17 0)
(1.18077 4.8377e-17 0)
(1.18077 -6.19949e-17 0)
(1.18077 -4.12807e-17 0)
(1.19744 5.72509e-17 0)
(1.19744 5.03991e-17 0)
(1.19744 -5.41622e-17 0)
(1.19744 -4.2422e-17 0)
(1.21389 4.68166e-17 0)
(1.21389 5.37898e-17 0)
(1.21389 -4.51974e-17 0)
(1.21389 -4.54691e-17 0)
(1.23011 3.79706e-17 0)
(1.23011 6.16202e-17 0)
(1.23011 -3.61105e-17 0)
(1.23011 -5.43251e-17 0)
(1.24607 3.58654e-17 0)
(1.24607 6.61641e-17 0)
(1.24607 -3.35004e-17 0)
(1.24607 -5.88574e-17 0)
(1.26176 3.64545e-17 0)
(1.26176 7.1105e-17 0)
(1.26176 -3.65725e-17 0)
(1.26176 -6.41957e-17 0)
(1.27716 3.71777e-17 0)
(1.27716 8.88842e-17 0)
(1.27716 -3.89379e-17 0)
(1.27716 -8.67346e-17 0)
(1.29225 4.01309e-17 0)
(1.29225 1.15355e-16 0)
(1.29225 -3.62646e-17 0)
(1.29225 -1.14362e-16 0)
(1.30701 4.51736e-17 0)
(1.30701 1.34329e-16 0)
(1.30701 -3.62595e-17 0)
(1.30701 -1.33692e-16 0)
(1.32143 5.21464e-17 0)
(1.32143 1.43079e-16 0)
(1.32143 -3.70831e-17 0)
(1.32143 -1.47276e-16 0)
(1.33548 5.582e-17 0)
(1.33548 1.54219e-16 0)
(1.33548 -3.59142e-17 0)
(1.33548 -1.59997e-16 0)
(1.34914 6.41801e-17 0)
(1.34914 1.5764e-16 0)
(1.34914 -4.44794e-17 0)
(1.34914 -1.64904e-16 0)
(1.36238 8.21657e-17 0)
(1.36238 1.52592e-16 0)
(1.36238 -6.27689e-17 0)
(1.36238 -1.62501e-16 0)
(1.3752 9.07597e-17 0)
(1.3752 1.45693e-16 0)
(1.3752 -7.22949e-17 0)
(1.3752 -1.54833e-16 0)
(1.38755 8.90889e-17 0)
(1.38755 1.36511e-16 0)
(1.38755 -7.61066e-17 0)
(1.38755 -1.40717e-16 0)
(1.39942 8.91193e-17 0)
(1.39942 1.27138e-16 0)
(1.39942 -7.98502e-17 0)
(1.39942 -1.27145e-16 0)
(1.41078 8.95405e-17 0)
(1.41078 1.19083e-16 0)
(1.41078 -7.82301e-17 0)
(1.41078 -1.21497e-16 0)
(1.42161 8.42361e-17 0)
(1.42161 1.21262e-16 0)
(1.42161 -6.67015e-17 0)
(1.42161 -1.31195e-16 0)
(1.43187 6.83261e-17 0)
(1.43187 1.23083e-16 0)
(1.43187 -4.87351e-17 0)
(1.43187 -1.31513e-16 0)
(1.44155 4.97092e-17 0)
(1.44155 1.16824e-16 0)
(1.44155 -3.4216e-17 0)
(1.44155 -1.19795e-16 0)
(1.4506 3.24944e-17 0)
(1.4506 1.01066e-16 0)
(1.4506 -1.66485e-17 0)
(1.4506 -1.07809e-16 0)
(1.45901 2.01544e-17 0)
(1.45901 9.12718e-17 0)
(1.45901 -6.06996e-18 0)
(1.45901 -9.73984e-17 0)
(1.46673 1.17276e-17 0)
(1.46673 8.17324e-17 0)
(1.46673 -7.39925e-19 0)
(1.46673 -8.46791e-17 0)
(1.47374 9.20425e-18 0)
(1.47374 6.44887e-17 0)
(1.47374 2.5798e-18 0)
(1.47374 -7.05355e-17 0)
(1.48001 7.57291e-18 0)
(1.48001 5.5407e-17 0)
(1.48001 3.70969e-18 0)
(1.48001 -6.37651e-17 0)
(1.48549 5.71083e-18 0)
(1.48549 4.49823e-17 0)
(1.48549 2.82984e-18 0)
(1.48549 -5.35205e-17 0)
(1.49015 2.83699e-18 0)
(1.49015 3.31965e-17 0)
(1.49015 3.67388e-18 0)
(1.49015 -4.05254e-17 0)
(1.49396 4.44199e-18 0)
(1.49396 2.7427e-17 0)
(1.49396 1.43452e-18 0)
(1.49396 -3.52634e-17 0)
(1.49688 6.70907e-18 0)
(1.49688 1.32064e-17 0)
(1.49688 -4.50309e-18 0)
(1.49688 -1.75593e-17 0)
(1.49887 4.02583e-18 0)
(1.49887 -3.37398e-19 0)
(1.49887 -2.96527e-18 0)
(1.49887 1.28733e-18 0)
(1.49988 1.66261e-18 0)
(1.49988 4.02182e-18 0)
(1.49988 -6.74984e-19 0)
(1.49988 -3.20538e-18 0)
)
;

boundaryField
{
    inlet
    {
        type            cyclic;
    }
    outlet
    {
        type            cyclic;
    }
    fixedWalls-bottom
    {
        type            noSlip;
    }
    fixedWalls-top
    {
        type            symmetry;
    }
    frontAndBack
    {
        type            empty;
    }
}


// ************************************************************************* //
