/*--------------------------------*- C++ -*----------------------------------*\
  =========                 |
  \\      /  F ield         | OpenFOAM: The Open Source CFD Toolbox
   \\    /   O peration     | Website:  https://openfoam.org
    \\  /    A nd           | Version:  10
     \\/     M anipulation  |
\*---------------------------------------------------------------------------*/
FoamFile
{
    format      ascii;
    class       volScalarField;
    location    "2500";
    object      nut;
}
// * * * * * * * * * * * * * * * * * * * * * * * * * * * * * * * * * * * * * //

dimensions      [0 2 -1 0 0 0 0];

internalField   nonuniform List<scalar> 
400
(
9.4537e-09
9.45498e-09
9.45482e-09
9.45076e-09
1.57601e-06
1.57622e-06
1.57619e-06
1.57552e-06
2.48304e-05
2.48332e-05
2.48328e-05
2.48231e-05
0.00010204
0.000102049
0.000102047
0.000102011
0.000228439
0.000228455
0.00022845
0.000228368
0.000399382
0.000399405
0.000399391
0.000399239
0.000614974
0.000615003
0.00061497
0.00061472
0.000874522
0.000874554
0.00087449
0.000874118
0.00117593
0.00117597
0.00117585
0.00117534
0.00151627
0.00151633
0.00151614
0.00151547
0.00189238
0.00189249
0.0018922
0.00189135
0.00230115
0.00230132
0.00230091
0.00229987
0.00273968
0.00273991
0.00273939
0.00273815
0.00320536
0.00320564
0.00320503
0.00320359
0.00369585
0.00369617
0.00369547
0.00369382
0.00420903
0.00420939
0.00420862
0.00420676
0.00474305
0.00474345
0.0047426
0.00474053
0.00529622
0.00529665
0.00529575
0.00529346
0.00586704
0.0058675
0.00586656
0.00586404
0.00645417
0.00645461
0.00645367
0.00645091
0.00705639
0.00705676
0.00705588
0.00705286
0.00767261
0.00767283
0.00767205
0.00766876
0.00830185
0.00830187
0.00830117
0.00829759
0.00894304
0.00894299
0.00894231
0.00893842
0.00959535
0.00959529
0.00959458
0.0095904
0.010258
0.010258
0.0102572
0.0102527
0.0109303
0.0109302
0.0109294
0.0109247
0.0116114
0.0116114
0.0116106
0.0116055
0.0123009
0.0123009
0.0123
0.0122947
0.0129981
0.0129981
0.0129971
0.0129915
0.0137024
0.0137024
0.0137014
0.0136955
0.0144133
0.0144132
0.0144122
0.014406
0.0151302
0.0151301
0.0151291
0.0151226
0.0158529
0.0158526
0.0158515
0.0158448
0.0165806
0.0165802
0.0165791
0.0165721
0.0173129
0.0173124
0.0173113
0.0173041
0.0180494
0.0180488
0.0180478
0.0180403
0.0187897
0.0187891
0.0187881
0.0187803
0.0195334
0.0195327
0.0195318
0.0195237
0.0202802
0.0202793
0.0202784
0.0202701
0.0210296
0.0210287
0.0210278
0.0210192
0.0217813
0.0217804
0.0217793
0.0217705
0.0225349
0.022534
0.0225328
0.0225237
0.02329
0.0232891
0.0232878
0.0232785
0.0240462
0.0240453
0.0240439
0.0240343
0.0248032
0.0248023
0.0248008
0.024791
0.0255607
0.0255598
0.0255582
0.0255481
0.0263182
0.0263173
0.0263156
0.0263053
0.0270754
0.0270745
0.0270727
0.0270621
0.0278319
0.0278311
0.0278292
0.0278184
0.0285874
0.0285867
0.0285847
0.0285736
0.0293415
0.0293408
0.0293387
0.0293275
0.0300938
0.0300931
0.030091
0.0300796
0.0308438
0.0308433
0.0308412
0.0308296
0.0315912
0.0315909
0.0315888
0.0315771
0.0323358
0.0323356
0.0323335
0.0323218
0.0330772
0.033077
0.0330749
0.0330632
0.0338149
0.0338147
0.0338127
0.0338009
0.0345487
0.0345484
0.0345463
0.0345345
0.035278
0.0352776
0.0352755
0.0352637
0.036002
0.0360022
0.0359998
0.035988
0.0367209
0.0367217
0.0367187
0.0367069
0.0374341
0.0374353
0.0374318
0.03742
0.038141
0.0381427
0.0381387
0.0381269
0.0388411
0.0388432
0.0388389
0.0388271
0.0395339
0.0395364
0.039532
0.0395201
0.0402191
0.0402218
0.0402173
0.0402054
0.0408962
0.040899
0.0408944
0.0408825
0.0415648
0.0415675
0.0415629
0.0415509
0.0422241
0.0422268
0.0422221
0.04221
0.0428739
0.0428762
0.0428715
0.0428592
0.0435131
0.0435152
0.0435106
0.0434981
0.0441411
0.0441432
0.0441386
0.0441259
0.0447574
0.0447594
0.044755
0.0447422
0.0453614
0.0453635
0.0453591
0.0453462
0.0459525
0.0459548
0.0459502
0.0459372
0.04653
0.0465324
0.0465277
0.0465147
0.0470929
0.0470953
0.047091
0.0470779
0.0476413
0.0476429
0.0476394
0.0476261
0.0481744
0.0481748
0.048172
0.0481586
0.0486906
0.0486906
0.0486882
0.0486745
0.0491894
0.0491893
0.049187
0.0491731
0.0496699
0.04967
0.0496677
0.0496535
0.0501315
0.0501316
0.0501293
0.0501151
0.0505732
0.0505733
0.050571
0.0505567
0.0509941
0.0509943
0.050992
0.0509777
0.0513934
0.0513936
0.0513913
0.0513771
0.0517701
0.0517702
0.051768
0.0517538
0.0521232
0.0521232
0.052121
0.0521071
0.0524517
0.0524517
0.0524495
0.0524359
0.0527544
0.0527548
0.0527524
0.0527391
0.0530299
0.0530318
0.0530288
0.0530158
0.0532784
0.0532815
0.0532777
0.0532648
0.0534984
0.0535026
0.053498
0.0534852
0.0536889
0.0536937
0.0536885
0.0536758
0.0538485
0.053854
0.0538482
0.0538355
0.053976
0.0539822
0.0539759
0.0539632
0.0540703
0.0540773
0.0540702
0.0540577
0.05413
0.054138
0.0541301
0.0541177
0.0541539
0.054163
0.0541544
0.0541421
)
;

boundaryField
{
    inlet
    {
        type            cyclic;
    }
    outlet
    {
        type            cyclic;
    }
    fixedWalls-bottom
    {
        type            nutkWallFunction;
        Cmu             0.09;
        kappa           0.41;
        E               9.8;
        value           uniform 0;
    }
    fixedWalls-top
    {
        type            symmetry;
    }
    frontAndBack
    {
        type            empty;
    }
}


// ************************************************************************* //
