/*--------------------------------*- C++ -*----------------------------------*\
  =========                 |
  \\      /  F ield         | OpenFOAM: The Open Source CFD Toolbox
   \\    /   O peration     | Website:  https://openfoam.org
    \\  /    A nd           | Version:  10
     \\/     M anipulation  |
\*---------------------------------------------------------------------------*/
FoamFile
{
    format      ascii;
    class       volScalarField;
    location    "2500";
    object      omega;
}
// * * * * * * * * * * * * * * * * * * * * * * * * * * * * * * * * * * * * * //

dimensions      [0 0 -1 0 0 0 0];

internalField   nonuniform List<scalar> 
400
(
2068.53
2068.53
2068.53
2068.53
368.739
368.74
368.74
368.738
144.898
144.899
144.899
144.898
81.4821
81.4819
81.4821
81.4826
52.6428
52.6426
52.6427
52.6439
36.8984
36.8983
36.8985
36.8997
27.4842
27.4842
27.4846
27.4855
21.4718
21.472
21.4724
21.473
17.4196
17.4197
17.42
17.4204
14.5617
14.5618
14.562
14.5621
12.4674
12.4675
12.4676
12.4675
10.8822
10.8823
10.8823
10.8821
9.64908
9.64909
9.6491
9.64871
8.66725
8.66722
8.66719
8.6667
7.86983
7.86978
7.86972
7.86913
7.21104
7.21098
7.21089
7.21024
6.65868
6.65861
6.65851
6.6578
6.18956
6.18949
6.18937
6.18862
5.78661
5.78653
5.7864
5.78562
5.43701
5.43693
5.4368
5.43601
5.13101
5.13093
5.13079
5.12999
4.86103
4.86094
4.8608
4.86
4.62112
4.62103
4.6209
4.6201
4.40656
4.40648
4.40634
4.40555
4.21355
4.21347
4.21333
4.21255
4.03899
4.03891
4.03877
4.03801
3.88035
3.88027
3.88014
3.87939
3.73553
3.73545
3.73532
3.73459
3.60278
3.6027
3.60257
3.60185
3.48062
3.48054
3.48042
3.47971
3.36781
3.36774
3.36762
3.36693
3.26329
3.26323
3.26311
3.26244
3.16615
3.1661
3.16599
3.16533
3.0756
3.07558
3.07547
3.07483
2.991
2.99099
2.99088
2.99025
2.91175
2.91174
2.91163
2.91102
2.83733
2.83733
2.83721
2.83662
2.76729
2.7673
2.76718
2.76659
2.70124
2.70125
2.70112
2.70055
2.63883
2.63883
2.63871
2.63814
2.57973
2.57973
2.57961
2.57906
2.52368
2.52368
2.52357
2.52302
2.47043
2.47042
2.47033
2.46979
2.41976
2.41975
2.41967
2.41914
2.37148
2.37147
2.3714
2.37088
2.32541
2.32541
2.32534
2.32483
2.2814
2.28139
2.28133
2.28082
2.23929
2.23928
2.23922
2.23873
2.19896
2.19895
2.19889
2.1984
2.16028
2.16027
2.16021
2.15974
2.12316
2.12315
2.12309
2.12262
2.08749
2.08748
2.08742
2.08696
2.0532
2.05318
2.05312
2.05266
2.02019
2.02017
2.0201
2.01964
1.9884
1.98836
1.98829
1.98784
1.95774
1.9577
1.95763
1.95717
1.92815
1.92811
1.92804
1.92758
1.89958
1.89955
1.89948
1.89902
1.87198
1.87195
1.87188
1.87142
1.84529
1.84528
1.84521
1.84475
1.81949
1.81948
1.81941
1.81896
1.79454
1.79453
1.79446
1.79401
1.77039
1.77038
1.77031
1.76986
1.74701
1.747
1.74693
1.74648
1.72438
1.72436
1.72429
1.72384
1.70246
1.70243
1.70236
1.7019
1.68122
1.68119
1.68112
1.68066
1.66064
1.66061
1.66053
1.66008
1.6407
1.64066
1.64059
1.64013
1.62137
1.62134
1.62127
1.62081
1.60263
1.60262
1.60255
1.6021
1.5845
1.5845
1.58442
1.58397
1.56695
1.56695
1.56686
1.56643
1.54996
1.54997
1.54987
1.54944
1.53353
1.53353
1.53344
1.53301
1.51764
1.51764
1.51755
1.51713
1.5023
1.50228
1.50221
1.50178
1.4875
1.48746
1.48739
1.48697
1.47322
1.47318
1.47311
1.47268
1.45946
1.45942
1.45935
1.45892
1.44623
1.44619
1.44612
1.44569
1.43352
1.43349
1.43341
1.43298
1.42135
1.42131
1.42124
1.4208
1.4097
1.40966
1.40959
1.40915
1.39858
1.39855
1.39847
1.39804
1.38801
1.38798
1.3879
1.38747
1.37799
1.37796
1.37788
1.37745
1.36853
1.3685
1.36842
1.36799
1.35964
1.35961
1.35954
1.3591
1.35134
1.35131
1.35124
1.3508
1.34365
1.34361
1.34354
1.3431
1.33657
1.33654
1.33646
1.33602
1.33013
1.3301
1.33003
1.32958
1.32437
1.32433
1.32426
1.32381
1.31929
1.31926
1.31918
1.31874
1.31494
1.3149
1.31483
1.31438
1.31134
1.31131
1.31123
1.31078
1.30854
1.3085
1.30843
1.30798
1.30657
1.30653
1.30646
1.306
1.30548
1.30543
1.30536
1.30491
)
;

boundaryField
{
    inlet
    {
        type            cyclic;
    }
    outlet
    {
        type            cyclic;
    }
    fixedWalls-bottom
    {
        beta1           0.075;
        blended         0;
        type            omegaWallFunction;
        value           uniform 2068.53;
    }
    fixedWalls-top
    {
        type            symmetry;
    }
    frontAndBack
    {
        type            empty;
    }
}


// ************************************************************************* //
