/*--------------------------------*- C++ -*----------------------------------*\
  =========                 |
  \\      /  F ield         | OpenFOAM: The Open Source CFD Toolbox
   \\    /   O peration     | Website:  https://openfoam.org
    \\  /    A nd           | Version:  10
     \\/     M anipulation  |
\*---------------------------------------------------------------------------*/
FoamFile
{
    format      ascii;
    class       volScalarField;
    location    "5000";
    object      k;
}
// * * * * * * * * * * * * * * * * * * * * * * * * * * * * * * * * * * * * * //

dimensions      [0 2 -2 0 0 0 0];

internalField   nonuniform List<scalar> 
400
(
3.38049e-11
3.37737e-11
3.37633e-11
3.37779e-11
1.01414e-09
1.0132e-09
1.01289e-09
1.01333e-09
7.182e-09
7.17537e-09
7.17315e-09
7.17626e-09
2.6111e-08
2.60868e-08
2.60787e-08
2.609e-08
6.75616e-08
6.7499e-08
6.74781e-08
6.75074e-08
1.43082e-07
1.42949e-07
1.42905e-07
1.42966e-07
2.65913e-07
2.65666e-07
2.65584e-07
2.65698e-07
4.50997e-07
4.50579e-07
4.50439e-07
4.50633e-07
7.15018e-07
7.14356e-07
7.14135e-07
7.1444e-07
1.07645e-06
1.07545e-06
1.07512e-06
1.07557e-06
1.55555e-06
1.55411e-06
1.55363e-06
1.55428e-06
2.17426e-06
2.17226e-06
2.17159e-06
2.17249e-06
2.95598e-06
2.95327e-06
2.95236e-06
2.95356e-06
3.92499e-06
3.92141e-06
3.9202e-06
3.92176e-06
5.10571e-06
5.1011e-06
5.09951e-06
5.10149e-06
6.52158e-06
6.51576e-06
6.51373e-06
6.5162e-06
8.19377e-06
8.18659e-06
8.18403e-06
8.18704e-06
1.01397e-05
1.01311e-05
1.01279e-05
1.01315e-05
1.23718e-05
1.23616e-05
1.23577e-05
1.2362e-05
1.48963e-05
1.48844e-05
1.48798e-05
1.48847e-05
1.77122e-05
1.76988e-05
1.76933e-05
1.7699e-05
2.08117e-05
2.07969e-05
2.07905e-05
2.07969e-05
2.41797e-05
2.41638e-05
2.41564e-05
2.41635e-05
2.77945e-05
2.7778e-05
2.77695e-05
2.77773e-05
3.16285e-05
3.16116e-05
3.16022e-05
3.16106e-05
3.56477e-05
3.56311e-05
3.56206e-05
3.56295e-05
3.98113e-05
3.97957e-05
3.97842e-05
3.97936e-05
4.40697e-05
4.40557e-05
4.40432e-05
4.40529e-05
4.8365e-05
4.83531e-05
4.83398e-05
4.83496e-05
5.26644e-05
5.2655e-05
5.26409e-05
5.26508e-05
5.69368e-05
5.69299e-05
5.69153e-05
5.69251e-05
6.11526e-05
6.11484e-05
6.11337e-05
6.1143e-05
6.52846e-05
6.52831e-05
6.52683e-05
6.52771e-05
6.93068e-05
6.93083e-05
6.92935e-05
6.93014e-05
7.31948e-05
7.31996e-05
7.31849e-05
7.31917e-05
7.69553e-05
7.6963e-05
7.69478e-05
7.69541e-05
8.06209e-05
8.06306e-05
8.06146e-05
8.06209e-05
8.42145e-05
8.42256e-05
8.42087e-05
8.42154e-05
8.77514e-05
8.77635e-05
8.77455e-05
8.77529e-05
9.12415e-05
9.1254e-05
9.12351e-05
9.12434e-05
9.46902e-05
9.47029e-05
9.46829e-05
9.46924e-05
9.80996e-05
9.81121e-05
9.80911e-05
9.8102e-05
0.00010147
0.000101482
0.000101459
0.000101472
0.000104798
0.000104809
0.000104786
0.0001048
0.000108081
0.000108091
0.000108067
0.000108083
0.000111314
0.000111323
0.000111297
0.000111316
0.000114491
0.000114499
0.000114471
0.000114493
0.000117606
0.000117613
0.000117583
0.000117609
0.000120653
0.000120657
0.000120626
0.000120655
0.000123622
0.000123624
0.00012359
0.000123624
0.000126505
0.000126506
0.000126469
0.000126509
0.000129295
0.000129293
0.000129253
0.000129298
0.00013198
0.000131976
0.000131932
0.000131982
0.00013455
0.000134543
0.000134496
0.000134552
0.000136994
0.000136986
0.000136933
0.000136997
0.000139301
0.00013929
0.000139233
0.000139304
0.000141458
0.000141444
0.000141382
0.000141462
0.000143451
0.000143434
0.000143367
0.000143456
0.000145266
0.000145246
0.000145173
0.000145272
0.000146888
0.000146865
0.000146787
0.000146895
0.0001483
0.000148275
0.00014819
0.000148309
0.000149486
0.000149458
0.000149368
0.000149497
0.000150428
0.000150396
0.000150301
0.00015044
0.000151106
0.000151071
0.000150971
0.000151121
0.0001515
0.000151463
0.000151359
0.000151519
0.00015159
0.000151551
0.000151443
0.000151613
0.000151355
0.000151314
0.000151204
0.000151382
0.000150772
0.000150731
0.000150619
0.000150804
0.000149821
0.00014978
0.000149666
0.000149858
0.000148479
0.000148439
0.000148325
0.00014852
0.000146726
0.000146686
0.000146573
0.00014677
0.000144539
0.000144501
0.000144389
0.000144585
0.000141898
0.000141863
0.000141753
0.000141944
0.000138782
0.000138751
0.000138643
0.000138826
0.000135169
0.000135143
0.000135036
0.000135206
0.000131031
0.00013101
0.000130903
0.000131055
0.000126327
0.000126311
0.000126201
0.00012633
0.000121034
0.000121021
0.000120908
0.00012102
0.000115182
0.000115171
0.000115055
0.000115153
0.000108809
0.000108801
0.000108679
0.000108767
0.000101964
0.000101955
0.000101828
0.000101908
9.46939e-05
9.4685e-05
9.45518e-05
9.46265e-05
8.70654e-05
8.70547e-05
8.69158e-05
8.69863e-05
7.91835e-05
7.91701e-05
7.90268e-05
7.90938e-05
7.12127e-05
7.12004e-05
7.10593e-05
7.11181e-05
6.33718e-05
6.33631e-05
6.32288e-05
6.32772e-05
5.58308e-05
5.58272e-05
5.57032e-05
5.57403e-05
4.87279e-05
4.87294e-05
4.86183e-05
4.86444e-05
4.21721e-05
4.21785e-05
4.20816e-05
4.20978e-05
3.62412e-05
3.62516e-05
3.61693e-05
3.61774e-05
3.09766e-05
3.09902e-05
3.09212e-05
3.09237e-05
2.63838e-05
2.63994e-05
2.6342e-05
2.63409e-05
2.24421e-05
2.24586e-05
2.24104e-05
2.2408e-05
1.91178e-05
1.91343e-05
1.90932e-05
1.90912e-05
1.63712e-05
1.63871e-05
1.63514e-05
1.63509e-05
1.41606e-05
1.41754e-05
1.41439e-05
1.41452e-05
1.24454e-05
1.24589e-05
1.24308e-05
1.24338e-05
1.11899e-05
1.12023e-05
1.11766e-05
1.1181e-05
1.0366e-05
1.03775e-05
1.03536e-05
1.03589e-05
9.95602e-06
9.96701e-06
9.944e-06
9.94987e-06
)
;

boundaryField
{
    inlet
    {
        type            cyclic;
    }
    outlet
    {
        type            cyclic;
    }
    fixedWalls-bottom
    {
        type            kqRWallFunction;
        value           nonuniform List<scalar> 4(3.38049e-11 3.37737e-11 3.37633e-11 3.37779e-11);
    }
    fixedWalls-top
    {
        type            symmetry;
    }
    frontAndBack
    {
        type            empty;
    }
}


// ************************************************************************* //
