/*--------------------------------*- C++ -*----------------------------------*\
  =========                 |
  \\      /  F ield         | OpenFOAM: The Open Source CFD Toolbox
   \\    /   O peration     | Website:  https://openfoam.org
    \\  /    A nd           | Version:  10
     \\/     M anipulation  |
\*---------------------------------------------------------------------------*/
FoamFile
{
    format      ascii;
    class       volScalarField;
    location    "5000";
    object      p;
}
// * * * * * * * * * * * * * * * * * * * * * * * * * * * * * * * * * * * * * //

dimensions      [0 2 -2 0 0 0 0];

internalField   nonuniform List<scalar> 
400
(
-9.91881e-13
1.86879e-08
3.60697e-09
-1.50993e-08
1.05719e-11
1.86717e-08
3.59443e-09
-1.50832e-08
2.46387e-11
1.86542e-08
3.57991e-09
-1.50656e-08
3.82105e-11
1.86386e-08
3.56589e-09
-1.50501e-08
5.14995e-11
1.8625e-08
3.55221e-09
-1.50364e-08
6.46536e-11
1.8613e-08
3.53866e-09
-1.50244e-08
7.78151e-11
1.86026e-08
3.52517e-09
-1.5014e-08
9.08306e-11
1.85939e-08
3.51181e-09
-1.50054e-08
1.03774e-10
1.85871e-08
3.49858e-09
-1.49985e-08
1.16508e-10
1.85823e-08
3.48554e-09
-1.49937e-08
1.29119e-10
1.85795e-08
3.47267e-09
-1.49909e-08
1.41476e-10
1.85788e-08
3.46002e-09
-1.49903e-08
1.5366e-10
1.85804e-08
3.44759e-09
-1.49918e-08
1.65533e-10
1.85842e-08
3.43544e-09
-1.49956e-08
1.77163e-10
1.85902e-08
3.42358e-09
-1.50016e-08
1.88396e-10
1.85984e-08
3.41208e-09
-1.50098e-08
1.99263e-10
1.86086e-08
3.40099e-09
-1.502e-08
2.09562e-10
1.86203e-08
3.39044e-09
-1.50317e-08
2.19216e-10
1.86325e-08
3.38056e-09
-1.50439e-08
2.27833e-10
1.86435e-08
3.3717e-09
-1.50549e-08
2.35011e-10
1.86502e-08
3.36432e-09
-1.50616e-08
2.39847e-10
1.86472e-08
3.35925e-09
-1.50586e-08
2.40989e-10
1.86258e-08
3.35791e-09
-1.50372e-08
2.35059e-10
1.85687e-08
3.36361e-09
-1.49801e-08
2.14071e-10
1.84333e-08
3.38441e-09
-1.48447e-08
1.6327e-10
1.81381e-08
3.435e-09
-1.45495e-08
8.0267e-11
1.76518e-08
3.51782e-09
-1.40632e-08
3.63443e-11
1.73115e-08
3.56154e-09
-1.37229e-08
5.61563e-11
1.72546e-08
3.54155e-09
-1.3666e-08
8.63874e-11
1.72432e-08
3.51112e-09
-1.36546e-08
1.16061e-10
1.72272e-08
3.48128e-09
-1.36386e-08
1.47508e-10
1.7219e-08
3.44965e-09
-1.36304e-08
1.829e-10
1.72283e-08
3.4141e-09
-1.36397e-08
2.23191e-10
1.72584e-08
3.37363e-09
-1.36697e-08
2.69633e-10
1.73105e-08
3.32704e-09
-1.37219e-08
3.22777e-10
1.73836e-08
3.27373e-09
-1.3795e-08
3.82743e-10
1.74732e-08
3.21362e-09
-1.38846e-08
4.48886e-10
1.75753e-08
3.14732e-09
-1.39867e-08
5.20278e-10
1.76869e-08
3.0758e-09
-1.40982e-08
5.95866e-10
1.78058e-08
3.00006e-09
-1.42172e-08
6.74984e-10
1.79303e-08
2.92082e-09
-1.43417e-08
7.56859e-10
1.80588e-08
2.8388e-09
-1.44701e-08
8.40901e-10
1.81897e-08
2.75464e-09
-1.4601e-08
9.26291e-10
1.83214e-08
2.66912e-09
-1.47328e-08
1.01226e-09
1.84524e-08
2.58304e-09
-1.48638e-08
1.09777e-09
1.85808e-08
2.4974e-09
-1.49922e-08
1.18175e-09
1.87044e-08
2.41332e-09
-1.51157e-08
1.26283e-09
1.88206e-08
2.33212e-09
-1.52319e-08
1.33953e-09
1.89261e-08
2.25531e-09
-1.53375e-08
1.41007e-09
1.90171e-08
2.18467e-09
-1.54284e-08
1.47268e-09
1.90889e-08
2.12197e-09
-1.55002e-08
1.52629e-09
1.91383e-08
2.06825e-09
-1.55496e-08
1.57039e-09
1.91634e-08
2.02406e-09
-1.55747e-08
1.60368e-09
1.91619e-08
1.99067e-09
-1.55732e-08
1.62398e-09
1.913e-08
1.97029e-09
-1.55413e-08
1.62887e-09
1.90641e-08
1.9653e-09
-1.54754e-08
1.61582e-09
1.89601e-08
1.97828e-09
-1.53714e-08
1.58215e-09
1.88144e-08
2.01186e-09
-1.52257e-08
1.52493e-09
1.86233e-08
2.06901e-09
-1.50345e-08
1.44103e-09
1.8384e-08
2.15283e-09
-1.47953e-08
1.32705e-09
1.80937e-08
2.26675e-09
-1.45049e-08
1.17951e-09
1.77512e-08
2.41421e-09
-1.41625e-08
9.94737e-10
1.73554e-08
2.59892e-09
-1.37667e-08
7.69217e-10
1.69083e-08
2.82437e-09
-1.33195e-08
4.99541e-10
1.64126e-08
3.09398e-09
-1.28239e-08
1.83095e-10
1.58761e-08
3.41037e-09
-1.22873e-08
-1.82e-10
1.53069e-08
3.7754e-09
-1.17182e-08
-5.96079e-10
1.47157e-08
4.18942e-09
-1.1127e-08
-1.05746e-09
1.41111e-08
4.65075e-09
-1.05224e-08
-1.56096e-09
1.35046e-08
5.1542e-09
-9.9158e-09
-2.09745e-09
1.29062e-08
5.69064e-09
-9.31738e-09
-2.65267e-09
1.23287e-08
6.24581e-09
-8.7399e-09
-3.2066e-09
1.17821e-08
6.79969e-09
-8.1933e-09
-3.73161e-09
1.12778e-08
7.32466e-09
-7.68895e-09
-4.18906e-09
1.082e-08
7.78208e-09
-7.23114e-09
-4.52437e-09
1.04068e-08
8.11734e-09
-6.81797e-09
-4.67504e-09
1.00183e-08
8.26798e-09
-6.42946e-09
-4.62777e-09
9.62761e-09
8.22066e-09
-6.03879e-09
-4.41433e-09
9.1951e-09
8.0072e-09
-5.60627e-09
-4.05443e-09
8.73265e-09
7.64726e-09
-5.14381e-09
-3.54636e-09
8.49801e-09
7.13916e-09
-4.90916e-09
-2.90042e-09
8.82723e-09
6.49319e-09
-5.23836e-09
-2.28933e-09
7.77651e-09
5.88208e-09
-4.18764e-09
-2.2828e-09
-3.37964e-09
5.87556e-09
6.9685e-09
-2.4754e-09
-1.93852e-08
6.06822e-09
2.29741e-08
-2.15089e-09
-2.83679e-08
5.74378e-09
3.19568e-08
-1.56972e-09
-3.21358e-08
5.16262e-09
3.57247e-08
-9.93127e-10
-3.35782e-08
4.58603e-09
3.71671e-08
-5.40097e-10
-3.4089e-08
4.13299e-09
3.76779e-08
-2.22752e-10
-3.42043e-08
3.81563e-09
3.77932e-08
8.54806e-13
-3.41101e-08
3.59202e-09
3.7699e-08
1.63341e-10
-3.39195e-08
3.42953e-09
3.75084e-08
2.82917e-10
-3.3703e-08
3.30995e-09
3.72919e-08
3.68335e-10
-3.34891e-08
3.22453e-09
3.70781e-08
4.26419e-10
-3.32888e-08
3.16645e-09
3.68777e-08
4.64148e-10
-3.31092e-08
3.12872e-09
3.66982e-08
4.87634e-10
-3.29571e-08
3.10524e-09
3.6546e-08
5.01273e-10
-3.28377e-08
3.09161e-09
3.64267e-08
5.07523e-10
-3.27577e-08
3.08536e-09
3.63466e-08
5.07242e-10
-3.27207e-08
3.08564e-09
3.63096e-08
)
;

boundaryField
{
    inlet
    {
        type            cyclic;
    }
    outlet
    {
        type            cyclic;
    }
    fixedWalls-bottom
    {
        type            zeroGradient;
    }
    fixedWalls-top
    {
        type            symmetry;
    }
    frontAndBack
    {
        type            empty;
    }
}


// ************************************************************************* //
