/*--------------------------------*- C++ -*----------------------------------*\
  =========                 |
  \\      /  F ield         | OpenFOAM: The Open Source CFD Toolbox
   \\    /   O peration     | Website:  https://openfoam.org
    \\  /    A nd           | Version:  10
     \\/     M anipulation  |
\*---------------------------------------------------------------------------*/
FoamFile
{
    format      ascii;
    class       surfaceScalarField;
    location    "5000";
    object      phi;
}
// * * * * * * * * * * * * * * * * * * * * * * * * * * * * * * * * * * * * * //

dimensions      [0 3 -1 0 0 0 0];

internalField   nonuniform List<scalar> 
696
(
6.40663e-05
3.07956e-12
6.40663e-05
-3.21371e-12
6.40663e-05
-2.25202e-12
3.21292e-12
0.000195223
9.79388e-12
0.000195223
-1.23494e-11
0.000195223
-9.06169e-12
1.23487e-11
0.0003313
2.13142e-11
0.0003313
-2.7098e-11
0.0003313
-2.05454e-11
2.7097e-11
0.000472426
3.75075e-11
0.000472427
-4.71468e-11
0.000472427
-3.68224e-11
4.71458e-11
0.000618733
5.87232e-11
0.000618733
-7.21574e-11
0.000618733
-5.79991e-11
7.2156e-11
0.000770354
8.48265e-11
0.000770354
-1.01724e-10
0.000770354
-8.41743e-11
1.01723e-10
0.000927425
1.16125e-10
0.000927425
-1.3542e-10
0.000927425
-1.15433e-10
1.35418e-10
0.00109008
1.52479e-10
0.00109008
-1.72742e-10
0.00109008
-1.5185e-10
1.7274e-10
0.00125847
1.94155e-10
0.00125847
-2.13171e-10
0.00125847
-1.93486e-10
2.13169e-10
0.00143273
2.41002e-10
0.00143273
-2.56106e-10
0.00143273
-2.40391e-10
2.56104e-10
0.00161301
2.93246e-10
0.00161301
-3.00939e-10
0.00161301
-2.92595e-10
3.00937e-10
0.00179945
3.50718e-10
0.00179945
-3.46972e-10
0.00179945
-3.50122e-10
3.4697e-10
0.0019922
4.13607e-10
0.0019922
-3.93515e-10
0.0019922
-4.12972e-10
3.93512e-10
0.00219142
4.81719e-10
0.00219142
-4.39785e-10
0.00219142
-4.81136e-10
4.39783e-10
0.00239725
5.55201e-10
0.00239725
-4.85039e-10
0.00239725
-5.5458e-10
4.85036e-10
0.00260986
6.33834e-10
0.00260986
-5.2845e-10
0.00260986
-6.33262e-10
5.28447e-10
0.00282941
7.17713e-10
0.00282941
-5.69301e-10
0.00282941
-7.17105e-10
5.69298e-10
0.00305604
8.06575e-10
0.00305604
-6.06871e-10
0.00305604
-8.06015e-10
6.06868e-10
0.00328993
9.00438e-10
0.00328993
-6.40734e-10
0.00328993
-8.99843e-10
6.4073e-10
0.00353124
9.98933e-10
0.00353124
-6.70747e-10
0.00353124
-9.98384e-10
6.70743e-10
0.00378013
1.10188e-09
0.00378013
-6.97636e-10
0.00378013
-1.1013e-09
6.97632e-10
0.00403677
1.20857e-09
0.00403677
-7.23366e-10
0.00403677
-1.20804e-09
7.23362e-10
0.00430132
1.31818e-09
0.00430132
-7.52573e-10
0.00430132
-1.31761e-09
7.52569e-10
0.00457396
1.42876e-09
0.00457396
-7.94102e-10
0.00457396
-1.42823e-09
7.94098e-10
0.00485485
1.53723e-09
0.00485485
-8.64466e-10
0.00485485
-1.53667e-09
8.64461e-10
0.00514417
1.63795e-09
0.00514417
-9.92665e-10
0.00514417
-1.63744e-09
9.92661e-10
0.00544208
1.72191e-09
0.00544208
-1.22855e-09
0.00544208
-1.72136e-09
1.22854e-09
0.00574875
1.79654e-09
0.00574875
-1.54124e-09
0.00574875
-1.79604e-09
1.54123e-09
0.00606435
1.87563e-09
0.00606435
-1.86485e-09
0.00606435
-1.8751e-09
1.86485e-09
0.00638908
1.95847e-09
0.00638908
-2.19675e-09
0.00638908
-1.95797e-09
2.19674e-09
0.00672311
2.04449e-09
0.00672311
-2.53384e-09
0.00672311
-2.04396e-09
2.53383e-09
0.00706661
2.13273e-09
0.00706661
-2.87227e-09
0.00706661
-2.13224e-09
2.87226e-09
0.00741977
2.22243e-09
0.00741977
-3.2077e-09
0.00741977
-2.22192e-09
3.20769e-09
0.00778276
2.31265e-09
0.00778276
-3.53509e-09
0.00778276
-2.31218e-09
3.53508e-09
0.00815575
2.40289e-09
0.00815575
-3.84881e-09
0.00815575
-2.40239e-09
3.84881e-09
0.00853893
2.49253e-09
0.00853893
-4.14318e-09
0.00853893
-2.49207e-09
4.14318e-09
0.00893247
2.58118e-09
0.00893247
-4.41359e-09
0.00893247
-2.58069e-09
4.41358e-09
0.00933653
2.6681e-09
0.00933653
-4.65614e-09
0.00933653
-2.66766e-09
4.65613e-09
0.00975131
2.75261e-09
0.00975131
-4.86768e-09
0.00975131
-2.75214e-09
4.86767e-09
0.010177
2.83362e-09
0.010177
-5.04543e-09
0.010177
-2.83318e-09
5.04542e-09
0.0106136
2.91023e-09
0.0106136
-5.18706e-09
0.0106136
-2.90977e-09
5.18705e-09
0.0110615
2.98133e-09
0.0110615
-5.29048e-09
0.0110615
-2.98091e-09
5.29047e-09
0.0115208
3.04604e-09
0.0115208
-5.35391e-09
0.0115208
-3.0456e-09
5.3539e-09
0.0119916
3.10337e-09
0.0119916
-5.37578e-09
0.0119916
-3.10296e-09
5.37577e-09
0.0124741
3.15264e-09
0.0124741
-5.35476e-09
0.0124741
-3.15221e-09
5.35475e-09
0.0129684
3.19309e-09
0.0129684
-5.28984e-09
0.0129684
-3.1927e-09
5.28983e-09
0.0134747
3.22429e-09
0.0134747
-5.18032e-09
0.0134747
-3.22387e-09
5.18031e-09
0.0139931
3.24575e-09
0.0139931
-5.02604e-09
0.0139931
-3.24536e-09
5.02603e-09
0.0145238
3.25731e-09
0.0145238
-4.82741e-09
0.0145238
-3.2569e-09
4.82739e-09
0.0150668
3.25884e-09
0.0150668
-4.58569e-09
0.0150668
-3.25847e-09
4.58568e-09
0.0156224
3.25066e-09
0.0156224
-4.30343e-09
0.0156224
-3.25026e-09
4.30341e-09
0.0161906
3.23333e-09
0.0161906
-3.9838e-09
0.0161906
-3.23297e-09
3.98379e-09
0.0167715
3.20818e-09
0.0167715
-3.63009e-09
0.0167715
-3.2078e-09
3.63008e-09
0.0173652
3.17677e-09
0.0173652
-3.24614e-09
0.0173652
-3.17642e-09
3.24612e-09
0.0179718
3.14109e-09
0.0179718
-2.83693e-09
0.0179718
-3.14072e-09
2.83691e-09
0.0185914
3.10308e-09
0.0185914
-2.40823e-09
0.0185914
-3.10274e-09
2.40821e-09
0.019224
3.06477e-09
0.019224
-1.96731e-09
0.019224
-3.06442e-09
1.96729e-09
0.0198697
3.02784e-09
0.0198697
-1.52221e-09
0.0198697
-3.02752e-09
1.52219e-09
0.0205285
2.99363e-09
0.0205285
-1.08281e-09
0.0205285
-2.99329e-09
1.08278e-09
0.0212004
2.96263e-09
0.0212004
-6.59586e-10
0.0212004
-2.96231e-09
6.59566e-10
0.0218854
2.93426e-09
0.0218854
-2.65085e-10
0.0218854
-2.93393e-09
2.65061e-10
0.0225836
2.90634e-09
0.0225836
8.80395e-11
0.0225836
-2.90604e-09
-8.80612e-11
0.0232948
2.87457e-09
0.0232948
3.85316e-10
0.0232948
-2.87425e-09
-3.85342e-10
0.0240191
2.83201e-09
0.0240191
6.13333e-10
0.0240191
-2.83173e-09
-6.13356e-10
0.0247563
2.76827e-09
0.0247563
7.58108e-10
0.0247563
-2.76797e-09
-7.58136e-10
0.0255064
2.66917e-09
0.0255064
8.09356e-10
0.0255064
-2.6689e-09
-8.09382e-10
0.0262692
2.51589e-09
0.0262692
7.5882e-10
0.0262692
-2.5156e-09
-7.5885e-10
0.0270445
2.28498e-09
0.0270445
6.04473e-10
0.0270445
-2.28472e-09
-6.045e-10
0.0278323
1.94791e-09
0.0278323
3.48128e-10
0.0278323
-1.94764e-09
-3.4816e-10
0.0286322
1.47212e-09
0.0286322
1.05363e-12
0.0286322
-1.47188e-09
-1.08315e-12
0.0294441
8.21612e-10
0.0294441
-4.1786e-10
0.0294441
-8.21352e-10
4.17826e-10
0.0302677
-4.05621e-11
0.0302677
-8.7506e-10
0.0302677
4.07952e-11
8.75028e-10
0.0311026
-1.14974e-09
0.0311026
-1.32439e-09
0.0311026
1.14999e-09
1.32435e-09
0.0319485
-2.53458e-09
0.0319485
-1.69893e-09
0.0319485
2.5348e-09
1.6989e-09
0.032805
-4.21022e-09
0.032805
-1.91481e-09
0.032805
4.21045e-09
1.91478e-09
0.0336717
-6.16969e-09
0.0336717
-1.86447e-09
0.0336717
6.16989e-09
1.86443e-09
0.0345482
-8.36846e-09
0.0345482
-1.42787e-09
0.0345482
8.36868e-09
1.42783e-09
0.0354338
-1.0741e-08
0.0354338
-4.63129e-10
0.0354338
1.07411e-08
4.63091e-10
0.036328
-1.32116e-08
0.036328
1.19057e-09
0.036328
1.32118e-08
-1.19062e-09
0.0372301
-1.56733e-08
0.0372301
3.71555e-09
0.0372301
1.56734e-08
-3.71559e-09
0.0381396
-1.79726e-08
0.0381396
7.31114e-09
0.0381396
1.79728e-08
-7.31118e-09
0.0390555
-1.98874e-08
0.0390555
1.21973e-08
0.0390555
1.98875e-08
-1.21973e-08
0.0399771
-2.11019e-08
0.0399771
1.85997e-08
0.0399771
2.1102e-08
-1.85997e-08
0.0409036
-2.15853e-08
0.0409036
2.15737e-08
0.0409036
2.15855e-08
-2.15737e-08
0.0418341
-2.12515e-08
0.0418341
1.8664e-08
0.0418341
2.12516e-08
-1.8664e-08
0.0427674
-1.99134e-08
0.0427674
1.36526e-08
0.0427675
1.99135e-08
-1.36526e-08
0.0437025
-1.77568e-08
0.0437026
8.40502e-09
0.0437026
1.7757e-08
-8.40506e-09
0.0446381
-1.50869e-08
0.0446381
3.85055e-09
0.0446381
1.5087e-08
-3.85058e-09
0.0455728
-1.22221e-08
0.0455728
3.32118e-10
0.0455728
1.22222e-08
-3.32153e-10
0.0465051
-9.42907e-09
0.0465051
-2.14161e-09
0.0465051
9.42915e-09
2.14158e-09
0.0474336
-6.88972e-09
0.0474336
-3.68688e-09
0.0474336
6.8898e-09
3.68685e-09
0.0483567
-4.71301e-09
0.0483567
-4.47472e-09
0.0483567
4.71307e-09
4.47469e-09
0.0492726
-2.94913e-09
0.0492726
-4.68698e-09
0.0492726
2.94918e-09
4.68695e-09
0.0501794
-1.60609e-09
0.0501794
-4.48526e-09
0.0501794
1.60613e-09
4.48524e-09
0.0510751
-6.61432e-10
0.0510751
-4.00185e-09
0.0510751
6.61468e-10
4.00183e-09
0.0519577
-7.15392e-11
0.0519577
-3.33806e-09
0.0519577
7.15663e-11
3.33805e-09
0.0528249
2.21057e-10
0.0528249
-2.56688e-09
0.0528249
-2.21038e-10
2.56687e-09
0.0536742
2.82255e-10
0.0536742
-1.73594e-09
0.0536742
-2.82244e-10
1.73594e-09
0.0545032
1.83437e-10
0.0545032
-8.72331e-10
0.0545032
-1.83434e-10
8.72327e-10
0.0553091
0.0553091
0.0553091
)
;

boundaryField
{
    inlet
    {
        type            cyclic;
        value           nonuniform List<scalar> 
100
(
-0.0553091
-0.0545032
-0.0536742
-0.0528249
-0.0519577
-0.0510751
-0.0501794
-0.0492726
-0.0483567
-0.0474336
-0.0465051
-0.0455728
-0.0446381
-0.0437025
-0.0427674
-0.0418341
-0.0409036
-0.0399771
-0.0390555
-0.0381396
-0.0372301
-0.036328
-0.0354338
-0.0345482
-0.0336717
-0.032805
-0.0319485
-0.0311026
-0.0302677
-0.0294441
-0.0286322
-0.0278323
-0.0270445
-0.0262692
-0.0255064
-0.0247563
-0.0240191
-0.0232948
-0.0225836
-0.0218854
-0.0212004
-0.0205285
-0.0198697
-0.019224
-0.0185914
-0.0179718
-0.0173652
-0.0167715
-0.0161906
-0.0156224
-0.0150668
-0.0145238
-0.0139931
-0.0134747
-0.0129684
-0.0124741
-0.0119916
-0.0115208
-0.0110615
-0.0106136
-0.010177
-0.00975131
-0.00933653
-0.00893247
-0.00853893
-0.00815575
-0.00778276
-0.00741977
-0.00706661
-0.00672311
-0.00638908
-0.00606435
-0.00574875
-0.00544208
-0.00514417
-0.00485485
-0.00457396
-0.00430132
-0.00403677
-0.00378013
-0.00353124
-0.00328993
-0.00305604
-0.00282941
-0.00260986
-0.00239725
-0.00219142
-0.0019922
-0.00179945
-0.00161301
-0.00143273
-0.00125847
-0.00109008
-0.000927425
-0.000770354
-0.000618733
-0.000472427
-0.0003313
-0.000195223
-6.40663e-05
)
;
    }
    outlet
    {
        type            cyclic;
        value           nonuniform List<scalar> 
100
(
0.0553091
0.0545032
0.0536742
0.0528249
0.0519577
0.0510751
0.0501794
0.0492726
0.0483567
0.0474336
0.0465051
0.0455728
0.0446381
0.0437025
0.0427674
0.0418341
0.0409036
0.0399771
0.0390555
0.0381396
0.0372301
0.036328
0.0354338
0.0345482
0.0336717
0.032805
0.0319485
0.0311026
0.0302677
0.0294441
0.0286322
0.0278323
0.0270445
0.0262692
0.0255064
0.0247563
0.0240191
0.0232948
0.0225836
0.0218854
0.0212004
0.0205285
0.0198697
0.019224
0.0185914
0.0179718
0.0173652
0.0167715
0.0161906
0.0156224
0.0150668
0.0145238
0.0139931
0.0134747
0.0129684
0.0124741
0.0119916
0.0115208
0.0110615
0.0106136
0.010177
0.00975131
0.00933653
0.00893247
0.00853893
0.00815575
0.00778276
0.00741977
0.00706661
0.00672311
0.00638908
0.00606435
0.00574875
0.00544208
0.00514417
0.00485485
0.00457396
0.00430132
0.00403677
0.00378013
0.00353124
0.00328993
0.00305604
0.00282941
0.00260986
0.00239725
0.00219142
0.0019922
0.00179945
0.00161301
0.00143273
0.00125847
0.00109008
0.000927425
0.000770354
0.000618733
0.000472427
0.0003313
0.000195223
6.40663e-05
)
;
    }
    fixedWalls-bottom
    {
        type            calculated;
        value           uniform 0;
    }
    fixedWalls-top
    {
        type            symmetry;
        value           uniform 0;
    }
    frontAndBack
    {
        type            empty;
        value           nonuniform List<scalar> 0();
    }
}


// ************************************************************************* //
