/*--------------------------------*- C++ -*----------------------------------*\
  =========                 |
  \\      /  F ield         | OpenFOAM: The Open Source CFD Toolbox
   \\    /   O peration     | Website:  https://openfoam.org
    \\  /    A nd           | Version:  10
     \\/     M anipulation  |
\*---------------------------------------------------------------------------*/
FoamFile
{
    format      ascii;
    class       volScalarField;
    location    "2500";
    object      k;
}
// * * * * * * * * * * * * * * * * * * * * * * * * * * * * * * * * * * * * * //

dimensions      [0 2 -2 0 0 0 0];

internalField   nonuniform List<scalar> 
400
(
0.000304875
0.000304871
0.000304834
0.000304839
0.00746059
0.00746051
0.00745972
0.00745984
0.019967
0.0199668
0.0199652
0.0199655
0.0284111
0.0284107
0.0284084
0.0284089
0.0351959
0.0351953
0.0351925
0.0351931
0.0410399
0.0410392
0.0410359
0.0410367
0.0462456
0.0462448
0.046241
0.046242
0.0509839
0.0509829
0.0509787
0.0509798
0.0553632
0.0553621
0.0553576
0.0553587
0.0594573
0.0594561
0.0594512
0.0594525
0.0633183
0.063317
0.0633118
0.0633131
0.0669846
0.0669832
0.0669777
0.0669791
0.070485
0.0704836
0.0704778
0.0704791
0.0738418
0.0738404
0.0738342
0.0738356
0.0770725
0.0770711
0.0770646
0.077066
0.0801913
0.0801898
0.080183
0.0801844
0.0832093
0.0832078
0.0832007
0.0832021
0.086136
0.0861345
0.0861271
0.0861285
0.0889791
0.0889776
0.0889698
0.0889712
0.091745
0.0917435
0.0917354
0.0917368
0.0944391
0.0944376
0.0944292
0.0944306
0.0970661
0.0970646
0.0970559
0.0970573
0.0996298
0.0996283
0.0996194
0.0996207
0.102134
0.102132
0.102123
0.102124
0.104581
0.104579
0.104569
0.104571
0.106973
0.106971
0.106962
0.106963
0.109313
0.109311
0.109301
0.109303
0.111602
0.111601
0.11159
0.111592
0.113843
0.113841
0.113831
0.113832
0.116036
0.116034
0.116024
0.116025
0.118183
0.118181
0.11817
0.118171
0.120285
0.120283
0.120271
0.120273
0.122342
0.12234
0.122329
0.12233
0.124356
0.124354
0.124342
0.124344
0.126327
0.126325
0.126313
0.126314
0.128256
0.128254
0.128242
0.128243
0.130144
0.130142
0.130129
0.130131
0.13199
0.131988
0.131976
0.131977
0.133796
0.133794
0.133781
0.133782
0.135561
0.135559
0.135546
0.135547
0.137287
0.137285
0.137271
0.137273
0.138972
0.13897
0.138957
0.138958
0.140618
0.140616
0.140603
0.140604
0.142225
0.142223
0.142209
0.14221
0.143793
0.14379
0.143776
0.143778
0.145321
0.145319
0.145305
0.145306
0.146811
0.146809
0.146794
0.146795
0.148262
0.14826
0.148245
0.148246
0.149674
0.149672
0.149657
0.149658
0.151048
0.151046
0.151031
0.151032
0.152384
0.152381
0.152366
0.152367
0.153681
0.153678
0.153663
0.153664
0.15494
0.154937
0.154922
0.154923
0.156161
0.156158
0.156143
0.156144
0.157343
0.157341
0.157325
0.157326
0.158488
0.158485
0.15847
0.158471
0.159595
0.159592
0.159576
0.159578
0.160664
0.160661
0.160645
0.160647
0.161696
0.161693
0.161677
0.161678
0.16269
0.162687
0.162671
0.162672
0.163646
0.163643
0.163627
0.163628
0.164566
0.164563
0.164546
0.164548
0.165448
0.165445
0.165429
0.16543
0.166294
0.166291
0.166274
0.166275
0.167103
0.1671
0.167083
0.167084
0.167875
0.167872
0.167855
0.167857
0.168611
0.168608
0.168591
0.168593
0.169312
0.169309
0.169292
0.169293
0.169977
0.169973
0.169956
0.169958
0.170606
0.170603
0.170586
0.170587
0.1712
0.171197
0.17118
0.171181
0.17176
0.171757
0.17174
0.171741
0.172286
0.172283
0.172265
0.172267
0.172778
0.172774
0.172757
0.172758
0.173236
0.173233
0.173215
0.173217
0.173662
0.173658
0.173641
0.173642
0.174055
0.174052
0.174034
0.174036
0.174417
0.174414
0.174396
0.174397
0.174748
0.174744
0.174726
0.174728
0.175048
0.175044
0.175027
0.175028
0.175319
0.175315
0.175297
0.175299
0.17556
0.175557
0.175539
0.17554
0.175774
0.17577
0.175752
0.175754
0.17596
0.175957
0.175939
0.17594
0.176121
0.176117
0.176099
0.1761
0.176256
0.176252
0.176234
0.176235
0.176367
0.176363
0.176345
0.176346
0.176455
0.176451
0.176433
0.176434
0.176521
0.176518
0.176499
0.176501
0.176568
0.176564
0.176546
0.176547
0.176595
0.176592
0.176573
0.176574
0.176606
0.176602
0.176583
0.176585
0.176601
0.176597
0.176578
0.17658
0.176582
0.176578
0.176559
0.176561
0.176552
0.176548
0.176529
0.17653
0.176512
0.176508
0.176489
0.17649
0.176465
0.176461
0.176441
0.176443
0.176412
0.176408
0.176389
0.17639
0.176357
0.176353
0.176333
0.176335
0.176301
0.176297
0.176277
0.176279
)
;

boundaryField
{
    inlet
    {
        type            cyclic;
    }
    outlet
    {
        type            cyclic;
    }
    fixedWalls-bottom
    {
        type            kqRWallFunction;
        value           nonuniform List<scalar> 4(0.000304875 0.000304871 0.000304834 0.000304839);
    }
    fixedWalls-top
    {
        type            symmetry;
    }
    frontAndBack
    {
        type            empty;
    }
}


// ************************************************************************* //
