/*--------------------------------*- C++ -*----------------------------------*\
  =========                 |
  \\      /  F ield         | OpenFOAM: The Open Source CFD Toolbox
   \\    /   O peration     | Website:  https://openfoam.org
    \\  /    A nd           | Version:  10
     \\/     M anipulation  |
\*---------------------------------------------------------------------------*/
FoamFile
{
    format      ascii;
    class       volScalarField;
    location    "2500";
    object      omega;
}
// * * * * * * * * * * * * * * * * * * * * * * * * * * * * * * * * * * * * * //

dimensions      [0 0 -1 0 0 0 0];

internalField   nonuniform List<scalar> 
400
(
1174.52
1174.52
1174.52
1174.52
244.835
244.835
244.835
244.835
100.011
100.011
100.012
100.012
55.3557
55.3557
55.3558
55.3555
36.9556
36.9556
36.9555
36.955
27.5613
27.5613
27.5612
27.5605
22.001
22.001
22.0008
22
18.3603
18.3602
18.3601
18.3592
15.8008
15.8007
15.8006
15.7996
13.9057
13.9056
13.9055
13.9043
12.4462
12.4461
12.446
12.4448
11.2874
11.2873
11.2872
11.286
10.3446
10.3445
10.3444
10.3432
9.5621
9.56201
9.56185
9.56069
8.90186
8.90177
8.9016
8.90045
8.33695
8.33687
8.33669
8.33556
7.84785
7.84777
7.84758
7.84647
7.42
7.41993
7.41973
7.41864
7.04238
7.04231
7.04211
7.04104
6.70646
6.70639
6.70618
6.70513
6.40552
6.40546
6.40525
6.40422
6.13425
6.13419
6.13399
6.13297
5.88835
5.88829
5.88809
5.88709
5.66432
5.66426
5.66406
5.66307
5.45926
5.4592
5.45901
5.45803
5.27079
5.27073
5.27054
5.26958
5.09689
5.09684
5.09665
5.09571
4.93588
4.93582
4.93564
4.93471
4.7863
4.78625
4.78607
4.78516
4.64694
4.64689
4.64671
4.64581
4.51673
4.51668
4.5165
4.51562
4.39474
4.3947
4.39453
4.39365
4.28019
4.28015
4.27998
4.27912
4.17238
4.17234
4.17217
4.17133
4.07069
4.07065
4.07049
4.06966
3.97459
3.97455
3.97439
3.97357
3.8836
3.88356
3.8834
3.8826
3.79729
3.79725
3.7971
3.79631
3.7153
3.71526
3.7151
3.71433
3.63727
3.63723
3.63708
3.63632
3.56292
3.56288
3.56273
3.56198
3.49196
3.49192
3.49178
3.49104
3.42416
3.42412
3.42398
3.42326
3.3593
3.35926
3.35912
3.35841
3.29717
3.29713
3.297
3.29629
3.23759
3.23755
3.23742
3.23674
3.18041
3.18037
3.18024
3.17957
3.12546
3.12542
3.1253
3.12464
3.07262
3.07258
3.07246
3.07181
3.02176
3.02172
3.02161
3.02097
2.97276
2.97272
2.97261
2.97199
2.92552
2.92549
2.92538
2.92477
2.87994
2.87992
2.87981
2.87921
2.83594
2.83593
2.83582
2.83523
2.79344
2.79344
2.79333
2.79275
2.75237
2.75237
2.75226
2.75169
2.71265
2.71266
2.71255
2.71198
2.67423
2.67424
2.67412
2.67357
2.63704
2.63705
2.63693
2.63638
2.60103
2.60104
2.60092
2.60038
2.56615
2.56616
2.56604
2.56551
2.53235
2.53237
2.53225
2.53172
2.4996
2.49961
2.4995
2.49897
2.46785
2.46786
2.46775
2.46723
2.43707
2.43708
2.43697
2.43646
2.40723
2.40724
2.40714
2.40663
2.37831
2.3783
2.37821
2.37771
2.35028
2.35025
2.35017
2.34967
2.3231
2.32307
2.32298
2.32249
2.29675
2.29672
2.29663
2.29614
2.27122
2.27119
2.2711
2.27061
2.24648
2.24646
2.24637
2.24588
2.22253
2.22251
2.22242
2.22193
2.19935
2.19933
2.19923
2.19875
2.17692
2.1769
2.17681
2.17633
2.15525
2.15522
2.15513
2.15466
2.13431
2.13428
2.13419
2.13372
2.1141
2.11408
2.11399
2.11352
2.09462
2.0946
2.09451
2.09405
2.07587
2.07585
2.07576
2.0753
2.05785
2.05783
2.05774
2.05728
2.04055
2.04053
2.04044
2.03998
2.02398
2.02396
2.02387
2.02341
2.00814
2.00812
2.00803
2.00758
1.99304
1.99302
1.99294
1.99249
1.97869
1.97868
1.97859
1.97814
1.96511
1.96509
1.96501
1.96456
1.95229
1.95227
1.95219
1.95175
1.94027
1.94024
1.94017
1.93972
1.92905
1.92902
1.92895
1.92851
1.91865
1.91862
1.91855
1.91812
1.90911
1.90908
1.90901
1.90858
1.90044
1.90041
1.90034
1.89991
1.89269
1.89265
1.89258
1.89215
1.88587
1.88583
1.88577
1.88534
1.88002
1.87999
1.87992
1.87949
1.8752
1.87516
1.8751
1.87467
1.87144
1.8714
1.87134
1.8709
1.86879
1.86875
1.86869
1.86825
1.8673
1.86726
1.8672
1.86676
)
;

boundaryField
{
    inlet
    {
        type            cyclic;
    }
    outlet
    {
        type            cyclic;
    }
    fixedWalls-bottom
    {
        beta1           0.075;
        blended         0;
        type            omegaWallFunction;
        value           uniform 1174.52;
    }
    fixedWalls-top
    {
        type            symmetry;
    }
    frontAndBack
    {
        type            empty;
    }
}


// ************************************************************************* //
