/*--------------------------------*- C++ -*----------------------------------*\
  =========                 |
  \\      /  F ield         | OpenFOAM: The Open Source CFD Toolbox
   \\    /   O peration     | Website:  https://openfoam.org
    \\  /    A nd           | Version:  10
     \\/     M anipulation  |
\*---------------------------------------------------------------------------*/
FoamFile
{
    format      ascii;
    class       surfaceScalarField;
    location    "2500";
    object      phi;
}
// * * * * * * * * * * * * * * * * * * * * * * * * * * * * * * * * * * * * * //

dimensions      [0 3 -1 0 0 0 0];

internalField   nonuniform List<scalar> 
696
(
0.00192153
-2.83033e-08
0.00192151
2.76928e-08
0.00192148
2.76917e-08
-2.7639e-08
0.0052121
-7.57646e-08
0.00521205
7.64926e-08
0.005212
7.53395e-08
-7.64696e-08
0.00690157
-1.06282e-07
0.00690153
1.14012e-07
0.0069015
1.0595e-07
-1.14008e-07
0.00773241
-1.23253e-07
0.00773239
1.43089e-07
0.00773237
1.22971e-07
-1.43092e-07
0.00824286
-1.31837e-07
0.00824283
1.67061e-07
0.00824282
1.31586e-07
-1.6707e-07
0.00861504
-1.35219e-07
0.00861502
1.87579e-07
0.00861501
1.34991e-07
-1.87589e-07
0.00891771
-1.35265e-07
0.00891769
2.05478e-07
0.00891769
1.35054e-07
-2.05492e-07
0.00918115
-1.33243e-07
0.00918114
2.21277e-07
0.00918114
1.33046e-07
-2.2129e-07
0.00942058
-1.29972e-07
0.00942057
2.35273e-07
0.00942057
1.29786e-07
-2.35288e-07
0.00964448
-1.26046e-07
0.00964447
2.47703e-07
0.00964447
1.2587e-07
-2.47717e-07
0.00985797
-1.21798e-07
0.00985796
2.58736e-07
0.00985796
1.2163e-07
-2.58752e-07
0.0100643
-1.17491e-07
0.0100643
2.68544e-07
0.0100643
1.17331e-07
-2.68558e-07
0.0102658
-1.13246e-07
0.0102658
2.77254e-07
0.0102658
1.13093e-07
-2.77269e-07
0.0104639
-1.09181e-07
0.0104639
2.85001e-07
0.0104639
1.09035e-07
-2.85014e-07
0.0106598
-1.05318e-07
0.0106598
2.9188e-07
0.0106598
1.05177e-07
-2.91894e-07
0.0108544
-1.01709e-07
0.0108544
2.97992e-07
0.0108544
1.01574e-07
-2.98004e-07
0.0110483
-9.83349e-08
0.0110483
3.03402e-07
0.0110483
9.82038e-08
-3.03415e-07
0.0112421
-9.52219e-08
0.0112421
3.08177e-07
0.0112421
9.50962e-08
-3.08188e-07
0.0114361
-9.23407e-08
0.0114361
3.12358e-07
0.0114361
9.22183e-08
-3.12369e-07
0.0116308
-8.97086e-08
0.0116308
3.15989e-07
0.0116308
8.9591e-08
-3.15998e-07
0.0118263
-8.72955e-08
0.0118263
3.19097e-07
0.0118263
8.71808e-08
-3.19107e-07
0.012023
-8.51166e-08
0.012023
3.21717e-07
0.012023
8.50061e-08
-3.21725e-07
0.012221
-8.31427e-08
0.012221
3.23866e-07
0.012221
8.30347e-08
-3.23875e-07
0.0124205
-8.13867e-08
0.0124205
3.25574e-07
0.0124205
8.12825e-08
-3.25581e-07
0.0126217
-7.98207e-08
0.0126217
3.26855e-07
0.0126217
7.97186e-08
-3.26862e-07
0.0128248
-7.84553e-08
0.0128248
3.27732e-07
0.0128248
7.83567e-08
-3.27738e-07
0.0130297
-7.72638e-08
0.0130297
3.28219e-07
0.0130297
7.71671e-08
-3.28225e-07
0.0132368
-7.62545e-08
0.0132368
3.28335e-07
0.0132368
7.6161e-08
-3.28339e-07
0.013446
-7.54022e-08
0.013446
3.28093e-07
0.013446
7.53103e-08
-3.28098e-07
0.0136575
-7.47133e-08
0.0136575
3.2751e-07
0.0136575
7.46243e-08
-3.27512e-07
0.0138713
-7.41643e-08
0.0138713
3.26597e-07
0.0138713
7.40768e-08
-3.266e-07
0.0140876
-7.37597e-08
0.0140876
3.2537e-07
0.0140876
7.36749e-08
-3.25372e-07
0.0143063
-7.34777e-08
0.0143064
3.23841e-07
0.0143064
7.33943e-08
-3.23843e-07
0.0145277
-7.33215e-08
0.0145277
3.22024e-07
0.0145277
7.32405e-08
-3.22025e-07
0.0147518
-7.32711e-08
0.0147518
3.1993e-07
0.0147518
7.31914e-08
-3.19931e-07
0.0149786
-7.33276e-08
0.0149786
3.17574e-07
0.0149786
7.32501e-08
-3.17573e-07
0.0152082
-7.34722e-08
0.0152082
3.14964e-07
0.0152082
7.33959e-08
-3.14964e-07
0.0154407
-7.3704e-08
0.0154407
3.12117e-07
0.0154407
7.36298e-08
-3.12115e-07
0.0156762
-7.40063e-08
0.0156762
3.0904e-07
0.0156762
7.39332e-08
-3.09039e-07
0.0159146
-7.4376e-08
0.0159146
3.05749e-07
0.0159146
7.43048e-08
-3.05746e-07
0.0161562
-7.47981e-08
0.0161562
3.02252e-07
0.0161562
7.4728e-08
-3.0225e-07
0.0164008
-7.52679e-08
0.0164008
2.98564e-07
0.0164008
7.51996e-08
-2.98561e-07
0.0166487
-7.57723e-08
0.0166487
2.94693e-07
0.0166487
7.5705e-08
-2.94691e-07
0.0168998
-7.63039e-08
0.0168998
2.90654e-07
0.0168998
7.62383e-08
-2.9065e-07
0.0171542
-7.68513e-08
0.0171542
2.86452e-07
0.0171542
7.67866e-08
-2.86449e-07
0.017412
-7.74048e-08
0.017412
2.82104e-07
0.017412
7.73416e-08
-2.82099e-07
0.0176732
-7.7954e-08
0.0176732
2.77614e-07
0.0176732
7.78918e-08
-2.7761e-07
0.0179379
-7.84863e-08
0.0179379
2.72996e-07
0.0179379
7.84256e-08
-2.7299e-07
0.0182061
-7.89919e-08
0.0182061
2.68252e-07
0.0182061
7.89322e-08
-2.68247e-07
0.0184779
-7.94546e-08
0.018478
2.63394e-07
0.018478
7.93962e-08
-2.63388e-07
0.0187535
-7.98635e-08
0.0187535
2.5842e-07
0.0187535
7.9806e-08
-2.58414e-07
0.0190327
-8.01972e-08
0.0190327
2.53337e-07
0.0190327
8.0141e-08
-2.5333e-07
0.0193157
-8.04422e-08
0.0193157
2.48136e-07
0.0193157
8.03869e-08
-2.48129e-07
0.0196025
-8.05747e-08
0.0196025
2.4282e-07
0.0196025
8.05206e-08
-2.42813e-07
0.0198933
-8.05916e-08
0.0198933
2.37388e-07
0.0198933
8.05384e-08
-2.37381e-07
0.020188
-8.04902e-08
0.020188
2.31868e-07
0.020188
8.04382e-08
-2.3186e-07
0.0204867
-8.02875e-08
0.0204867
2.26282e-07
0.0204867
8.02363e-08
-2.26274e-07
0.0207895
-7.99899e-08
0.0207895
2.20653e-07
0.0207895
7.99399e-08
-2.20644e-07
0.0210964
-7.9615e-08
0.0210964
2.14988e-07
0.0210964
7.95659e-08
-2.1498e-07
0.0214075
-7.91652e-08
0.0214075
2.09305e-07
0.0214075
7.91172e-08
-2.09295e-07
0.0217229
-7.86502e-08
0.0217229
2.03605e-07
0.0217229
7.86031e-08
-2.03597e-07
0.0220425
-7.8065e-08
0.0220425
1.97904e-07
0.0220425
7.80189e-08
-1.97895e-07
0.0223666
-7.74095e-08
0.0223666
1.92201e-07
0.0223666
7.73643e-08
-1.92192e-07
0.022695
-7.66713e-08
0.022695
1.86504e-07
0.022695
7.66271e-08
-1.86495e-07
0.023028
-7.58406e-08
0.023028
1.80811e-07
0.023028
7.57974e-08
-1.80801e-07
0.0233655
-7.49003e-08
0.0233655
1.75121e-07
0.0233655
7.4858e-08
-1.75111e-07
0.0237077
-7.38388e-08
0.0237077
1.69417e-07
0.0237077
7.37975e-08
-1.69408e-07
0.0240545
-7.26495e-08
0.0240545
1.63697e-07
0.0240545
7.26092e-08
-1.63686e-07
0.024406
-7.13385e-08
0.024406
1.57964e-07
0.024406
7.12992e-08
-1.57955e-07
0.0247624
-6.99203e-08
0.0247624
1.52239e-07
0.0247624
6.9882e-08
-1.52228e-07
0.0251236
-6.84065e-08
0.0251236
1.4653e-07
0.0251236
6.83693e-08
-1.46521e-07
0.0254897
-6.68095e-08
0.0254897
1.40852e-07
0.0254897
6.67733e-08
-1.40841e-07
0.0258609
-6.51339e-08
0.0258609
1.35207e-07
0.0258609
6.50988e-08
-1.35197e-07
0.0262371
-6.33882e-08
0.0262371
1.29604e-07
0.0262371
6.33541e-08
-1.29594e-07
0.0266184
-6.15726e-08
0.0266184
1.24044e-07
0.0266184
6.15396e-08
-1.24034e-07
0.0270048
-5.96939e-08
0.0270048
1.1853e-07
0.0270049
5.9662e-08
-1.1852e-07
0.0273966
-5.7751e-08
0.0273966
1.13063e-07
0.0273966
5.77203e-08
-1.13054e-07
0.0277936
-5.57506e-08
0.0277936
1.07646e-07
0.0277936
5.5721e-08
-1.07636e-07
0.028196
-5.36908e-08
0.028196
1.02277e-07
0.028196
5.36624e-08
-1.02268e-07
0.0286038
-5.15777e-08
0.0286038
9.69584e-08
0.0286038
5.15506e-08
-9.69487e-08
0.0290171
-4.94095e-08
0.0290171
9.16888e-08
0.0290171
4.93836e-08
-9.16796e-08
0.029436
-4.71915e-08
0.029436
8.64689e-08
0.029436
4.71669e-08
-8.64597e-08
0.0298605
-4.49222e-08
0.0298605
8.12973e-08
0.0298605
4.48989e-08
-8.12887e-08
0.0302906
-4.26064e-08
0.0302906
7.61742e-08
0.0302906
4.25844e-08
-7.61655e-08
0.0307265
-4.02433e-08
0.0307265
7.10976e-08
0.0307265
4.02228e-08
-7.10895e-08
0.0311682
-3.78378e-08
0.0311682
6.60673e-08
0.0311682
3.78186e-08
-6.60593e-08
0.0316157
-3.53905e-08
0.0316157
6.1081e-08
0.0316157
3.53727e-08
-6.10736e-08
0.0320692
-3.29053e-08
0.0320692
5.61382e-08
0.0320692
3.2889e-08
-5.6131e-08
0.0325286
-3.03826e-08
0.0325286
5.12362e-08
0.0325286
3.03678e-08
-5.12297e-08
0.0329941
-2.7823e-08
0.0329941
4.63746e-08
0.0329941
2.78097e-08
-4.63684e-08
0.0334656
-2.5225e-08
0.0334656
4.15512e-08
0.0334656
2.52132e-08
-4.15457e-08
0.0339433
-2.2587e-08
0.0339433
3.67666e-08
0.0339433
2.25768e-08
-3.67615e-08
0.0344271
-1.99081e-08
0.0344271
3.20206e-08
0.0344271
1.98994e-08
-3.20163e-08
0.0349172
-1.71868e-08
0.0349172
2.73166e-08
0.0349172
1.71796e-08
-2.73128e-08
0.0354136
-1.44228e-08
0.0354136
2.26568e-08
0.0354136
1.44172e-08
-2.26538e-08
0.0359162
-1.16158e-08
0.0359162
1.80463e-08
0.0359163
1.16117e-08
-1.80441e-08
0.0364253
-8.76611e-09
0.0364253
1.34869e-08
0.0364253
8.76361e-09
-1.34856e-08
0.0369407
-5.87428e-09
0.0369407
8.97666e-09
0.0369407
5.87339e-09
-8.97617e-09
0.0374626
-2.94171e-09
0.0374626
4.50321e-09
0.0374626
2.94222e-09
-4.50372e-09
0.0379909
0.0379909
0.0379909
)
;

boundaryField
{
    inlet
    {
        type            cyclic;
        value           nonuniform List<scalar> 
100
(
-0.0379909
-0.0374626
-0.0369407
-0.0364253
-0.0359162
-0.0354136
-0.0349172
-0.0344271
-0.0339433
-0.0334656
-0.0329941
-0.0325286
-0.0320692
-0.0316157
-0.0311682
-0.0307265
-0.0302906
-0.0298605
-0.029436
-0.0290171
-0.0286038
-0.028196
-0.0277936
-0.0273966
-0.0270048
-0.0266184
-0.0262371
-0.0258609
-0.0254897
-0.0251236
-0.0247624
-0.024406
-0.0240545
-0.0237077
-0.0233655
-0.023028
-0.022695
-0.0223666
-0.0220425
-0.0217229
-0.0214075
-0.0210964
-0.0207895
-0.0204867
-0.020188
-0.0198933
-0.0196025
-0.0193157
-0.0190327
-0.0187535
-0.0184779
-0.0182061
-0.0179379
-0.0176732
-0.017412
-0.0171542
-0.0168998
-0.0166487
-0.0164008
-0.0161562
-0.0159146
-0.0156762
-0.0154407
-0.0152082
-0.0149786
-0.0147518
-0.0145277
-0.0143063
-0.0140876
-0.0138713
-0.0136575
-0.013446
-0.0132368
-0.0130297
-0.0128248
-0.0126217
-0.0124205
-0.012221
-0.012023
-0.0118263
-0.0116308
-0.0114361
-0.0112421
-0.0110483
-0.0108544
-0.0106598
-0.0104639
-0.0102658
-0.0100643
-0.00985797
-0.00964449
-0.00942059
-0.00918115
-0.00891771
-0.00861503
-0.00824285
-0.0077324
-0.00690154
-0.00521205
-0.00192151
)
;
    }
    outlet
    {
        type            cyclic;
        value           nonuniform List<scalar> 
100
(
0.0379909
0.0374626
0.0369407
0.0364253
0.0359162
0.0354136
0.0349172
0.0344271
0.0339433
0.0334656
0.0329941
0.0325286
0.0320692
0.0316157
0.0311682
0.0307265
0.0302906
0.0298605
0.029436
0.0290171
0.0286038
0.028196
0.0277936
0.0273966
0.0270048
0.0266184
0.0262371
0.0258609
0.0254897
0.0251236
0.0247624
0.024406
0.0240545
0.0237077
0.0233655
0.023028
0.022695
0.0223666
0.0220425
0.0217229
0.0214075
0.0210964
0.0207895
0.0204867
0.020188
0.0198933
0.0196025
0.0193157
0.0190327
0.0187535
0.0184779
0.0182061
0.0179379
0.0176732
0.017412
0.0171542
0.0168998
0.0166487
0.0164008
0.0161562
0.0159146
0.0156762
0.0154407
0.0152082
0.0149786
0.0147518
0.0145277
0.0143063
0.0140876
0.0138713
0.0136575
0.013446
0.0132368
0.0130297
0.0128248
0.0126217
0.0124205
0.012221
0.012023
0.0118263
0.0116308
0.0114361
0.0112421
0.0110483
0.0108544
0.0106598
0.0104639
0.0102658
0.0100643
0.00985797
0.00964449
0.00942059
0.00918115
0.00891771
0.00861503
0.00824285
0.0077324
0.00690154
0.00521205
0.00192151
)
;
    }
    fixedWalls-bottom
    {
        type            calculated;
        value           uniform 0;
    }
    fixedWalls-top
    {
        type            symmetry;
        value           uniform 0;
    }
    frontAndBack
    {
        type            empty;
        value           nonuniform List<scalar> 0();
    }
}


// ************************************************************************* //
