/*--------------------------------*- C++ -*----------------------------------*\
  =========                 |
  \\      /  F ield         | OpenFOAM: The Open Source CFD Toolbox
   \\    /   O peration     | Website:  https://openfoam.org
    \\  /    A nd           | Version:  10
     \\/     M anipulation  |
\*---------------------------------------------------------------------------*/
FoamFile
{
    format      ascii;
    class       volSymmTensorField;
    location    "2500";
    object      R;
}
// * * * * * * * * * * * * * * * * * * * * * * * * * * * * * * * * * * * * * //

dimensions      [0 2 -2 0 0 0 0];

internalField   nonuniform List<symmTensor> 
400
(
(0.00020325 -2.14576e-05 -0 0.00020325 -0 0.00020325)
(0.000203248 -2.14573e-05 -0 0.000203248 -0 0.000203248)
(0.000203222 -2.14542e-05 -0 0.000203222 -0 0.000203222)
(0.000203226 -2.14547e-05 -0 0.000203226 -0 0.000203226)
(0.00497373 -0.00169426 -0 0.00497373 -0 0.00497373)
(0.00497368 -0.00169424 -0 0.00497368 -0 0.00497368)
(0.00497314 -0.00169405 -0 0.00497314 -0 0.00497314)
(0.00497323 -0.00169409 -0 0.00497323 -0 0.00497323)
(0.0133113 -0.00520017 -0 0.0133114 -0 0.0133114)
(0.0133112 -0.00520009 -0 0.0133112 -0 0.0133112)
(0.0133101 -0.00519976 -0 0.0133101 -0 0.0133101)
(0.0133103 -0.00519988 -0 0.0133103 -0 0.0133103)
(0.0189407 -0.00627202 -0 0.0189407 -0 0.0189407)
(0.0189405 -0.0062719 -0 0.0189405 -0 0.0189405)
(0.018939 -0.00627159 -0 0.0189389 -0 0.018939)
(0.0189393 -0.00627177 -0 0.0189393 -0 0.0189393)
(0.0234639 -0.00654825 -0 0.0234639 -0 0.0234639)
(0.0234636 -0.00654811 -0 0.0234635 -0 0.0234636)
(0.0234617 -0.00654781 -0 0.0234616 -0 0.0234616)
(0.0234621 -0.00654807 -0 0.0234621 -0 0.0234621)
(0.0273599 -0.00661557 -0 0.0273599 -0 0.0273599)
(0.0273595 -0.00661544 -0 0.0273595 -0 0.0273595)
(0.0273573 -0.00661516 -0 0.0273573 -0 0.0273573)
(0.0273578 -0.00661548 -0 0.0273578 -0 0.0273578)
(0.0308304 -0.00662106 -0 0.0308304 -0 0.0308304)
(0.0308299 -0.00662095 -0 0.0308299 -0 0.0308299)
(0.0308274 -0.00662067 -0 0.0308274 -0 0.0308274)
(0.030828 -0.00662105 -0 0.030828 -0 0.030828)
(0.0339892 -0.00660333 -0 0.0339892 -0 0.0339892)
(0.0339886 -0.00660326 -0 0.0339886 -0 0.0339886)
(0.0339858 -0.00660297 -0 0.0339858 -0 0.0339858)
(0.0339865 -0.00660342 -0 0.0339865 -0 0.0339865)
(0.0369088 -0.0065746 -0 0.0369088 -0 0.0369088)
(0.0369081 -0.00657458 -0 0.036908 -0 0.0369081)
(0.036905 -0.00657426 -0 0.0369051 -0 0.0369051)
(0.0369058 -0.00657478 -0 0.0369058 -0 0.0369058)
(0.0396382 -0.00653968 -0 0.0396382 -0 0.0396382)
(0.0396374 -0.00653968 -0 0.0396374 -0 0.0396374)
(0.0396341 -0.00653936 -0 0.0396342 -0 0.0396341)
(0.039635 -0.00653992 -0 0.039635 -0 0.039635)
(0.0422122 -0.00650083 -0 0.0422122 -0 0.0422122)
(0.0422114 -0.00650086 -0 0.0422113 -0 0.0422114)
(0.0422079 -0.00650053 -0 0.0422079 -0 0.0422079)
(0.0422087 -0.00650114 -0 0.0422088 -0 0.0422088)
(0.0446564 -0.0064593 -0 0.0446564 -0 0.0446564)
(0.0446555 -0.00645935 -0 0.0446555 -0 0.0446555)
(0.0446518 -0.00645903 -0 0.0446518 -0 0.0446518)
(0.0446527 -0.00645967 -0 0.0446527 -0 0.0446527)
(0.04699 -0.00641583 -0 0.04699 -0 0.04699)
(0.0469891 -0.00641589 -0 0.046989 -0 0.0469891)
(0.0469852 -0.00641558 -0 0.0469852 -0 0.0469852)
(0.0469861 -0.00641625 -0 0.0469861 -0 0.0469861)
(0.0492279 -0.00637091 -0 0.0492278 -0 0.0492279)
(0.0492269 -0.00637097 -0 0.0492269 -0 0.0492269)
(0.0492228 -0.00637068 -0 0.0492228 -0 0.0492228)
(0.0492237 -0.00637137 -0 0.0492237 -0 0.0492237)
(0.0513817 -0.00632487 -0 0.0513817 -0 0.0513817)
(0.0513807 -0.00632492 -0 0.0513807 -0 0.0513807)
(0.0513764 -0.00632464 -0 0.0513764 -0 0.0513764)
(0.0513773 -0.00632536 -0 0.0513774 -0 0.0513773)
(0.0534609 -0.00627792 -0 0.0534608 -0 0.0534608)
(0.0534599 -0.00627798 -0 0.0534598 -0 0.0534599)
(0.0534553 -0.0062777 -0 0.0534553 -0 0.0534553)
(0.0534562 -0.00627845 -0 0.0534563 -0 0.0534563)
(0.0554729 -0.00623024 -0 0.0554729 -0 0.0554729)
(0.0554719 -0.0062303 -0 0.0554719 -0 0.0554719)
(0.0554671 -0.00623004 -0 0.0554672 -0 0.0554671)
(0.0554681 -0.00623081 -0 0.0554681 -0 0.0554681)
(0.057424 -0.00618196 -0 0.057424 -0 0.057424)
(0.057423 -0.00618201 -0 0.057423 -0 0.057423)
(0.057418 -0.00618176 -0 0.0574181 -0 0.0574181)
(0.057419 -0.00618255 -0 0.057419 -0 0.057419)
(0.0593194 -0.00613316 -0 0.0593194 -0 0.0593194)
(0.0593184 -0.00613322 -0 0.0593184 -0 0.0593184)
(0.0593132 -0.00613297 -0 0.0593132 -0 0.0593132)
(0.0593141 -0.00613378 -0 0.0593142 -0 0.0593142)
(0.0611633 -0.00608392 -0 0.0611633 -0 0.0611633)
(0.0611623 -0.00608397 -0 0.0611623 -0 0.0611623)
(0.0611569 -0.00608374 -0 0.061157 -0 0.0611569)
(0.0611578 -0.00608456 -0 0.0611579 -0 0.0611579)
(0.0629594 -0.00603429 -0 0.0629594 -0 0.0629594)
(0.0629584 -0.00603433 -0 0.0629584 -0 0.0629584)
(0.0629528 -0.00603411 -0 0.0629528 -0 0.0629528)
(0.0629537 -0.00603495 -0 0.0629538 -0 0.0629537)
(0.0647107 -0.00598429 -0 0.0647107 -0 0.0647107)
(0.0647097 -0.00598434 -0 0.0647097 -0 0.0647097)
(0.0647039 -0.00598412 -0 0.064704 -0 0.0647039)
(0.0647048 -0.00598497 -0 0.0647049 -0 0.0647048)
(0.0664199 -0.00593398 -0 0.0664199 -0 0.0664199)
(0.0664189 -0.00593402 -0 0.0664189 -0 0.0664189)
(0.0664129 -0.0059338 -0 0.0664129 -0 0.0664129)
(0.0664138 -0.00593467 -0 0.0664138 -0 0.0664138)
(0.0680891 -0.00588335 -0 0.0680891 -0 0.0680891)
(0.0680881 -0.00588339 -0 0.0680881 -0 0.0680881)
(0.0680819 -0.00588318 -0 0.068082 -0 0.0680819)
(0.0680828 -0.00588406 -0 0.0680828 -0 0.0680828)
(0.0697204 -0.00583243 -0 0.0697204 -0 0.0697204)
(0.0697193 -0.00583247 -0 0.0697193 -0 0.0697193)
(0.069713 -0.00583226 -0 0.069713 -0 0.069713)
(0.0697139 -0.00583316 -0 0.0697139 -0 0.0697139)
(0.0713153 -0.00578123 -0 0.0713153 -0 0.0713153)
(0.0713142 -0.00578127 -0 0.0713142 -0 0.0713142)
(0.0713077 -0.00578105 -0 0.0713077 -0 0.0713077)
(0.0713086 -0.00578197 -0 0.0713086 -0 0.0713086)
(0.0728753 -0.00572974 -0 0.0728752 -0 0.0728752)
(0.0728742 -0.00572978 -0 0.0728742 -0 0.0728742)
(0.0728675 -0.00572957 -0 0.0728675 -0 0.0728675)
(0.0728683 -0.00573049 -0 0.0728683 -0 0.0728683)
(0.0744016 -0.00567797 -0 0.0744015 -0 0.0744016)
(0.0744004 -0.005678 -0 0.0744004 -0 0.0744004)
(0.0743936 -0.00567779 -0 0.0743936 -0 0.0743936)
(0.0743944 -0.00567873 -0 0.0743945 -0 0.0743944)
(0.0758953 -0.00562592 -0 0.0758953 -0 0.0758953)
(0.0758941 -0.00562594 -0 0.0758942 -0 0.0758941)
(0.0758871 -0.00562573 -0 0.0758871 -0 0.0758871)
(0.075888 -0.00562668 -0 0.075888 -0 0.075888)
(0.0773573 -0.00557357 -0 0.0773573 -0 0.0773573)
(0.0773562 -0.00557359 -0 0.0773562 -0 0.0773562)
(0.077349 -0.00557338 -0 0.077349 -0 0.077349)
(0.0773498 -0.00557434 -0 0.0773498 -0 0.0773498)
(0.0787886 -0.00552092 -0 0.0787886 -0 0.0787886)
(0.0787874 -0.00552094 -0 0.0787874 -0 0.0787874)
(0.0787801 -0.00552073 -0 0.0787801 -0 0.0787801)
(0.0787809 -0.00552169 -0 0.0787809 -0 0.0787809)
(0.0801897 -0.00546796 -0 0.0801897 -0 0.0801897)
(0.0801885 -0.00546798 -0 0.0801885 -0 0.0801885)
(0.080181 -0.00546776 -0 0.080181 -0 0.080181)
(0.0801818 -0.00546874 -0 0.0801818 -0 0.0801818)
(0.0815613 -0.00541468 -0 0.0815613 -0 0.0815613)
(0.0815601 -0.00541469 -0 0.0815601 -0 0.0815601)
(0.0815524 -0.00541447 -0 0.0815524 -0 0.0815524)
(0.0815532 -0.00541545 -0 0.0815532 -0 0.0815532)
(0.0829039 -0.00536106 -0 0.0829039 -0 0.0829039)
(0.0829027 -0.00536107 -0 0.0829027 -0 0.0829027)
(0.0828949 -0.00536085 -0 0.0828949 -0 0.0828949)
(0.0828957 -0.00536184 -0 0.0828957 -0 0.0828957)
(0.0842181 -0.00530709 -0 0.0842181 -0 0.0842181)
(0.0842168 -0.00530709 -0 0.0842168 -0 0.0842168)
(0.0842089 -0.00530687 -0 0.0842089 -0 0.0842089)
(0.0842097 -0.00530787 -0 0.0842096 -0 0.0842097)
(0.0855041 -0.00525275 -0 0.0855041 -0 0.0855041)
(0.0855029 -0.00525275 -0 0.0855029 -0 0.0855029)
(0.0854948 -0.00525253 -0 0.0854948 -0 0.0854948)
(0.0854956 -0.00525353 -0 0.0854955 -0 0.0854956)
(0.0867625 -0.00519804 -0 0.0867625 -0 0.0867625)
(0.0867612 -0.00519803 -0 0.0867612 -0 0.0867612)
(0.086753 -0.00519781 -0 0.086753 -0 0.086753)
(0.0867538 -0.00519881 -0 0.0867537 -0 0.0867537)
(0.0879935 -0.00514292 -0 0.0879935 -0 0.0879935)
(0.0879921 -0.00514291 -0 0.0879922 -0 0.0879922)
(0.0879838 -0.00514268 -0 0.0879838 -0 0.0879838)
(0.0879846 -0.00514369 -0 0.0879845 -0 0.0879845)
(0.0891973 -0.00508738 -0 0.0891973 -0 0.0891973)
(0.0891959 -0.00508737 -0 0.089196 -0 0.089196)
(0.0891874 -0.00508714 -0 0.0891874 -0 0.0891874)
(0.0891882 -0.00508815 -0 0.0891882 -0 0.0891882)
(0.0903742 -0.00503141 -0 0.0903742 -0 0.0903742)
(0.0903728 -0.00503139 -0 0.0903729 -0 0.0903729)
(0.0903642 -0.00503116 -0 0.0903642 -0 0.0903642)
(0.090365 -0.00503217 -0 0.0903649 -0 0.0903649)
(0.0915245 -0.00497498 -0 0.0915245 -0 0.0915245)
(0.091523 -0.00497496 -0 0.0915231 -0 0.0915231)
(0.0915143 -0.00497473 -0 0.0915143 -0 0.0915143)
(0.0915151 -0.00497574 -0 0.091515 -0 0.091515)
(0.0926482 -0.00491808 -0 0.0926482 -0 0.0926482)
(0.0926468 -0.00491805 -0 0.0926468 -0 0.0926468)
(0.0926378 -0.00491782 -0 0.0926378 -0 0.0926378)
(0.0926386 -0.00491883 -0 0.0926386 -0 0.0926386)
(0.0937456 -0.00486068 -0 0.0937456 -0 0.0937456)
(0.0937441 -0.00486065 -0 0.0937442 -0 0.0937441)
(0.0937351 -0.00486041 -0 0.0937351 -0 0.0937351)
(0.0937359 -0.00486142 -0 0.0937358 -0 0.0937358)
(0.0948167 -0.00480276 -0 0.0948167 -0 0.0948167)
(0.0948152 -0.00480273 -0 0.0948153 -0 0.0948153)
(0.0948061 -0.00480249 -0 0.0948061 -0 0.0948061)
(0.0948069 -0.0048035 -0 0.0948068 -0 0.0948068)
(0.0958618 -0.00474431 -0 0.0958618 -0 0.0958618)
(0.0958603 -0.00474427 -0 0.0958604 -0 0.0958603)
(0.095851 -0.00474403 -0 0.095851 -0 0.095851)
(0.0958518 -0.00474503 -0 0.0958517 -0 0.0958517)
(0.0968809 -0.0046853 -0 0.0968809 -0 0.0968809)
(0.0968793 -0.00468526 -0 0.0968794 -0 0.0968793)
(0.0968699 -0.00468501 -0 0.0968699 -0 0.0968699)
(0.0968707 -0.00468601 -0 0.0968706 -0 0.0968706)
(0.097874 -0.00462571 -0 0.097874 -0 0.097874)
(0.0978724 -0.00462566 -0 0.0978725 -0 0.0978725)
(0.0978629 -0.00462541 -0 0.0978629 -0 0.0978629)
(0.0978637 -0.00462641 -0 0.0978636 -0 0.0978637)
(0.0988414 -0.00456551 -0 0.0988414 -0 0.0988414)
(0.0988398 -0.00456546 -0 0.0988398 -0 0.0988398)
(0.0988301 -0.00456521 -0 0.0988301 -0 0.0988301)
(0.0988309 -0.0045662 -0 0.0988308 -0 0.0988309)
(0.099783 -0.00450469 -0 0.099783 -0 0.099783)
(0.0997813 -0.00450464 -0 0.0997814 -0 0.0997814)
(0.0997716 -0.00450438 -0 0.0997716 -0 0.0997716)
(0.0997724 -0.00450537 -0 0.0997723 -0 0.0997723)
(0.100699 -0.00444322 -0 0.100699 -0 0.100699)
(0.100697 -0.00444316 -0 0.100697 -0 0.100697)
(0.100687 -0.00444291 -0 0.100687 -0 0.100687)
(0.100688 -0.00444389 -0 0.100688 -0 0.100688)
(0.101589 -0.00438107 -0 0.101589 -0 0.101589)
(0.101587 -0.00438102 -0 0.101588 -0 0.101588)
(0.101578 -0.00438076 -0 0.101578 -0 0.101578)
(0.101578 -0.00438173 -0 0.101578 -0 0.101578)
(0.102454 -0.00431824 -0 0.102454 -0 0.102454)
(0.102452 -0.00431818 -0 0.102452 -0 0.102452)
(0.102442 -0.00431792 -0 0.102442 -0 0.102442)
(0.102443 -0.00431888 -0 0.102443 -0 0.102443)
(0.103293 -0.00425468 -0 0.103293 -0 0.103293)
(0.103291 -0.00425461 -0 0.103292 -0 0.103292)
(0.103281 -0.00425436 -0 0.103281 -0 0.103281)
(0.103282 -0.00425531 -0 0.103282 -0 0.103282)
(0.104107 -0.0041904 -0 0.104107 -0 0.104107)
(0.104105 -0.0041903 -0 0.104105 -0 0.104105)
(0.104095 -0.00419005 -0 0.104095 -0 0.104095)
(0.104096 -0.004191 -0 0.104096 -0 0.104096)
(0.104896 -0.00412534 -0 0.104896 -0 0.104896)
(0.104894 -0.00412523 -0 0.104894 -0 0.104894)
(0.104883 -0.00412498 -0 0.104883 -0 0.104883)
(0.104884 -0.00412592 -0 0.104884 -0 0.104884)
(0.105659 -0.00405949 -0 0.105659 -0 0.105659)
(0.105657 -0.00405936 -0 0.105657 -0 0.105657)
(0.105646 -0.00405912 -0 0.105646 -0 0.105646)
(0.105647 -0.00406004 -0 0.105647 -0 0.105647)
(0.106397 -0.00399281 -0 0.106397 -0 0.106397)
(0.106395 -0.00399268 -0 0.106395 -0 0.106395)
(0.106384 -0.00399244 -0 0.106384 -0 0.106384)
(0.106385 -0.00399335 -0 0.106385 -0 0.106385)
(0.107109 -0.00392529 -0 0.107109 -0 0.107109)
(0.107107 -0.00392515 -0 0.107108 -0 0.107108)
(0.107097 -0.00392492 -0 0.107097 -0 0.107097)
(0.107098 -0.00392581 -0 0.107098 -0 0.107098)
(0.107797 -0.0038569 -0 0.107797 -0 0.107797)
(0.107795 -0.00385676 -0 0.107795 -0 0.107795)
(0.107784 -0.00385653 -0 0.107785 -0 0.107784)
(0.107785 -0.00385741 -0 0.107785 -0 0.107785)
(0.10846 -0.00378762 -0 0.10846 -0 0.10846)
(0.108458 -0.00378747 -0 0.108458 -0 0.108458)
(0.108447 -0.00378724 -0 0.108447 -0 0.108447)
(0.108448 -0.00378811 -0 0.108448 -0 0.108448)
(0.109098 -0.00371741 -0 0.109097 -0 0.109098)
(0.109096 -0.00371727 -0 0.109096 -0 0.109096)
(0.109085 -0.00371704 -0 0.109085 -0 0.109085)
(0.109086 -0.00371789 -0 0.109085 -0 0.109086)
(0.10971 -0.00364625 -0 0.10971 -0 0.10971)
(0.109708 -0.00364611 -0 0.109709 -0 0.109709)
(0.109698 -0.00364588 -0 0.109698 -0 0.109698)
(0.109698 -0.00364673 -0 0.109698 -0 0.109698)
(0.110299 -0.00357413 -0 0.110299 -0 0.110299)
(0.110297 -0.00357399 -0 0.110297 -0 0.110297)
(0.110286 -0.00357376 -0 0.110286 -0 0.110286)
(0.110287 -0.00357459 -0 0.110287 -0 0.110287)
(0.110862 -0.003501 -0 0.110862 -0 0.110862)
(0.11086 -0.00350086 -0 0.110861 -0 0.11086)
(0.110849 -0.00350063 -0 0.110849 -0 0.110849)
(0.11085 -0.00350145 -0 0.11085 -0 0.11085)
(0.111402 -0.00342683 -0 0.111402 -0 0.111402)
(0.1114 -0.0034267 -0 0.1114 -0 0.1114)
(0.111389 -0.00342647 -0 0.111389 -0 0.111389)
(0.11139 -0.00342728 -0 0.111389 -0 0.111389)
(0.111917 -0.00335161 -0 0.111917 -0 0.111917)
(0.111915 -0.00335149 -0 0.111915 -0 0.111915)
(0.111904 -0.00335126 -0 0.111904 -0 0.111904)
(0.111904 -0.00335205 -0 0.111904 -0 0.111904)
(0.112408 -0.0032753 -0 0.112408 -0 0.112408)
(0.112405 -0.0032752 -0 0.112406 -0 0.112406)
(0.112394 -0.00327496 -0 0.112394 -0 0.112394)
(0.112395 -0.00327574 -0 0.112395 -0 0.112395)
(0.112875 -0.00319786 -0 0.112875 -0 0.112875)
(0.112872 -0.00319779 -0 0.112873 -0 0.112872)
(0.112861 -0.00319755 -0 0.112861 -0 0.112861)
(0.112862 -0.00319831 -0 0.112862 -0 0.112862)
(0.113318 -0.0031193 -0 0.113318 -0 0.113318)
(0.113316 -0.00311924 -0 0.113316 -0 0.113316)
(0.113304 -0.003119 -0 0.113304 -0 0.113304)
(0.113305 -0.00311975 -0 0.113305 -0 0.113305)
(0.113737 -0.00303958 -0 0.113737 -0 0.113737)
(0.113735 -0.00303951 -0 0.113735 -0 0.113735)
(0.113724 -0.00303928 -0 0.113724 -0 0.113724)
(0.113725 -0.00304001 -0 0.113725 -0 0.113725)
(0.114134 -0.00295865 -0 0.114134 -0 0.114134)
(0.114131 -0.00295859 -0 0.114132 -0 0.114131)
(0.11412 -0.00295835 -0 0.11412 -0 0.11412)
(0.114121 -0.00295907 -0 0.114121 -0 0.114121)
(0.114507 -0.0028765 -0 0.114507 -0 0.114507)
(0.114505 -0.00287643 -0 0.114505 -0 0.114505)
(0.114493 -0.0028762 -0 0.114493 -0 0.114493)
(0.114494 -0.0028769 -0 0.114494 -0 0.114494)
(0.114857 -0.00279308 -0 0.114857 -0 0.114857)
(0.114855 -0.00279301 -0 0.114855 -0 0.114855)
(0.114843 -0.00279279 -0 0.114843 -0 0.114843)
(0.114844 -0.00279347 -0 0.114844 -0 0.114844)
(0.115185 -0.00270837 -0 0.115185 -0 0.115185)
(0.115183 -0.0027083 -0 0.115183 -0 0.115183)
(0.115171 -0.00270808 -0 0.115171 -0 0.115171)
(0.115172 -0.00270875 -0 0.115172 -0 0.115172)
(0.115491 -0.00262233 -0 0.115491 -0 0.115491)
(0.115488 -0.00262226 -0 0.115489 -0 0.115489)
(0.115477 -0.00262206 -0 0.115477 -0 0.115477)
(0.115478 -0.0026227 -0 0.115478 -0 0.115478)
(0.115775 -0.00253494 -0 0.115775 -0 0.115775)
(0.115772 -0.00253488 -0 0.115772 -0 0.115772)
(0.115761 -0.00253467 -0 0.115761 -0 0.115761)
(0.115762 -0.0025353 -0 0.115761 -0 0.115762)
(0.116037 -0.00244617 -0 0.116037 -0 0.116037)
(0.116035 -0.0024461 -0 0.116035 -0 0.116035)
(0.116023 -0.00244591 -0 0.116023 -0 0.116023)
(0.116024 -0.00244651 -0 0.116024 -0 0.116024)
(0.116278 -0.00235597 -0 0.116278 -0 0.116278)
(0.116276 -0.00235591 -0 0.116276 -0 0.116276)
(0.116264 -0.00235572 -0 0.116264 -0 0.116264)
(0.116265 -0.0023563 -0 0.116265 -0 0.116265)
(0.116498 -0.00226432 -0 0.116498 -0 0.116498)
(0.116496 -0.00226426 -0 0.116496 -0 0.116496)
(0.116484 -0.00226408 -0 0.116484 -0 0.116484)
(0.116485 -0.00226464 -0 0.116485 -0 0.116485)
(0.116699 -0.00217119 -0 0.116699 -0 0.116699)
(0.116696 -0.00217113 -0 0.116696 -0 0.116696)
(0.116684 -0.00217095 -0 0.116684 -0 0.116684)
(0.116685 -0.00217149 -0 0.116685 -0 0.116685)
(0.116879 -0.00207653 -0 0.116879 -0 0.116879)
(0.116877 -0.00207648 -0 0.116877 -0 0.116877)
(0.116865 -0.00207631 -0 0.116865 -0 0.116865)
(0.116866 -0.00207683 -0 0.116866 -0 0.116866)
(0.11704 -0.00198033 -0 0.11704 -0 0.11704)
(0.117038 -0.00198027 -0 0.117038 -0 0.117038)
(0.117026 -0.00198011 -0 0.117026 -0 0.117026)
(0.117027 -0.0019806 -0 0.117027 -0 0.117027)
(0.117183 -0.00188253 -0 0.117183 -0 0.117183)
(0.11718 -0.00188247 -0 0.11718 -0 0.11718)
(0.117168 -0.00188232 -0 0.117168 -0 0.117168)
(0.117169 -0.00188279 -0 0.117169 -0 0.117169)
(0.117307 -0.0017831 -0 0.117307 -0 0.117307)
(0.117304 -0.00178305 -0 0.117305 -0 0.117305)
(0.117292 -0.0017829 -0 0.117293 -0 0.117292)
(0.117293 -0.00178335 -0 0.117293 -0 0.117293)
(0.117414 -0.00168202 -0 0.117414 -0 0.117414)
(0.117411 -0.00168197 -0 0.117411 -0 0.117411)
(0.117399 -0.00168183 -0 0.117399 -0 0.117399)
(0.1174 -0.00168225 -0 0.1174 -0 0.1174)
(0.117504 -0.00157924 -0 0.117504 -0 0.117504)
(0.117501 -0.00157919 -0 0.117501 -0 0.117501)
(0.117489 -0.00157905 -0 0.117489 -0 0.117489)
(0.11749 -0.00157945 -0 0.11749 -0 0.11749)
(0.117578 -0.00147472 -0 0.117578 -0 0.117578)
(0.117575 -0.00147468 -0 0.117575 -0 0.117575)
(0.117563 -0.00147455 -0 0.117563 -0 0.117563)
(0.117564 -0.00147492 -0 0.117564 -0 0.117564)
(0.117637 -0.00136843 -0 0.117637 -0 0.117637)
(0.117634 -0.00136839 -0 0.117634 -0 0.117634)
(0.117622 -0.00136827 -0 0.117622 -0 0.117622)
(0.117623 -0.00136862 -0 0.117623 -0 0.117623)
(0.117681 -0.00126033 -0 0.117681 -0 0.117681)
(0.117678 -0.00126029 -0 0.117679 -0 0.117678)
(0.117666 -0.00126018 -0 0.117666 -0 0.117666)
(0.117667 -0.0012605 -0 0.117667 -0 0.117667)
(0.117712 -0.00115038 -0 0.117712 -0 0.117712)
(0.117709 -0.00115034 -0 0.117709 -0 0.117709)
(0.117697 -0.00115024 -0 0.117697 -0 0.117697)
(0.117698 -0.00115053 -0 0.117698 -0 0.117698)
(0.11773 -0.00103853 -0 0.11773 -0 0.11773)
(0.117728 -0.0010385 -0 0.117728 -0 0.117728)
(0.117715 -0.0010384 -0 0.117715 -0 0.117715)
(0.117716 -0.00103867 -0 0.117716 -0 0.117716)
(0.117737 -0.000924754 -0 0.117737 -0 0.117737)
(0.117735 -0.000924723 -0 0.117735 -0 0.117735)
(0.117722 -0.000924635 -0 0.117722 -0 0.117722)
(0.117723 -0.000924869 -0 0.117723 -0 0.117723)
(0.117734 -0.000808989 -0 0.117734 -0 0.117734)
(0.117731 -0.000808959 -0 0.117731 -0 0.117731)
(0.117719 -0.000808881 -0 0.117719 -0 0.117719)
(0.11772 -0.000809086 -0 0.11772 -0 0.11772)
(0.117721 -0.000691188 -0 0.117721 -0 0.117721)
(0.117719 -0.000691158 -0 0.117719 -0 0.117719)
(0.117706 -0.00069109 -0 0.117706 -0 0.117706)
(0.117707 -0.000691266 -0 0.117707 -0 0.117707)
(0.117701 -0.00057129 -0 0.117701 -0 0.117701)
(0.117699 -0.00057126 -0 0.117699 -0 0.117699)
(0.117686 -0.000571202 -0 0.117686 -0 0.117686)
(0.117687 -0.000571348 -0 0.117687 -0 0.117687)
(0.117675 -0.000449224 -0 0.117675 -0 0.117675)
(0.117672 -0.000449193 -0 0.117672 -0 0.117672)
(0.117659 -0.000449146 -0 0.117659 -0 0.117659)
(0.11766 -0.000449262 -0 0.11766 -0 0.11766)
(0.117643 -0.000324907 -0 0.117643 -0 0.117643)
(0.11764 -0.000324877 -0 0.11764 -0 0.11764)
(0.117628 -0.000324841 -0 0.117628 -0 0.117628)
(0.117629 -0.000324927 -0 0.117629 -0 0.117629)
(0.117608 -0.000198209 -0 0.117608 -0 0.117608)
(0.117605 -0.000198182 -0 0.117605 -0 0.117605)
(0.117592 -0.000198159 -0 0.117593 -0 0.117593)
(0.117594 -0.000198212 -0 0.117593 -0 0.117593)
(0.117571 -6.90454e-05 -0 0.117571 -0 0.117571)
(0.117568 -6.90257e-05 -0 0.117569 -0 0.117569)
(0.117555 -6.90159e-05 -0 0.117556 -0 0.117556)
(0.117556 -6.90339e-05 -0 0.117556 -0 0.117556)
(0.117534 -1.952e-06 -0 0.117534 -0 0.117534)
(0.117531 -1.945e-06 -0 0.117531 -0 0.117531)
(0.117518 -1.9438e-06 -0 0.117518 -0 0.117518)
(0.117519 -1.94343e-06 -0 0.117519 -0 0.117519)
)
;

boundaryField
{
    inlet
    {
        type            cyclic;
    }
    outlet
    {
        type            cyclic;
    }
    fixedWalls-bottom
    {
        type            kqRWallFunction;
        value           nonuniform List<symmTensor> 4((0.00020325 -0 -0 0.00020325 -0 0.00020325) (0.000203248 -0 -0 0.000203248 -0 0.000203248) (0.000203222 -0 -0 0.000203222 -0 0.000203222) (0.000203226 -0 -0 0.000203226 -0 0.000203226));
    }
    fixedWalls-top
    {
        type            symmetry;
    }
    frontAndBack
    {
        type            empty;
    }
}


// ************************************************************************* //
