/*--------------------------------*- C++ -*----------------------------------*\
  =========                 |
  \\      /  F ield         | OpenFOAM: The Open Source CFD Toolbox
   \\    /   O peration     | Website:  https://openfoam.org
    \\  /    A nd           | Version:  10
     \\/     M anipulation  |
\*---------------------------------------------------------------------------*/
FoamFile
{
    format      ascii;
    class       volVectorField;
    location    "2500";
    object      U;
}
// * * * * * * * * * * * * * * * * * * * * * * * * * * * * * * * * * * * * * //

dimensions      [0 1 -1 0 0 0 0];

internalField   nonuniform List<vector> 
400
(
(0.208239 -7.9971e-09 0)
(0.20824 1.00932e-08 0)
(0.208233 8.0678e-09 0)
(0.208234 -1.0047e-08 0)
(0.55699 -5.65365e-08 0)
(0.55699 5.37412e-08 0)
(0.556979 5.55696e-08 0)
(0.55698 -5.37192e-08 0)
(0.72728 -9.54699e-08 0)
(0.727279 9.68047e-08 0)
(0.727272 9.51291e-08 0)
(0.727273 -9.67887e-08 0)
(0.803503 -1.17298e-07 0)
(0.803502 1.2999e-07 0)
(0.803497 1.17028e-07 0)
(0.803499 -1.29984e-07 0)
(0.844635 -1.28923e-07 0)
(0.844634 1.56125e-07 0)
(0.84463 1.2868e-07 0)
(0.844632 -1.56127e-07 0)
(0.870496 -1.34367e-07 0)
(0.870495 1.78085e-07 0)
(0.870492 1.34144e-07 0)
(0.870494 -1.78091e-07 0)
(0.888549 -1.35791e-07 0)
(0.888548 1.97143e-07 0)
(0.888546 1.35582e-07 0)
(0.888548 -1.97153e-07 0)
(0.902078 -1.34616e-07 0)
(0.902077 2.13908e-07 0)
(0.902075 1.34419e-07 0)
(0.902077 -2.1392e-07 0)
(0.912732 -1.31838e-07 0)
(0.912731 2.28741e-07 0)
(0.912729 1.31651e-07 0)
(0.912732 -2.28754e-07 0)
(0.921431 -1.28138e-07 0)
(0.92143 2.41901e-07 0)
(0.921429 1.27961e-07 0)
(0.921431 -2.41914e-07 0)
(0.928731 -1.23976e-07 0)
(0.92873 2.53585e-07 0)
(0.928729 1.23808e-07 0)
(0.928731 -2.53599e-07 0)
(0.934988 -1.19649e-07 0)
(0.934987 2.63963e-07 0)
(0.934986 1.19488e-07 0)
(0.934988 -2.63977e-07 0)
(0.940441 -1.1534e-07 0)
(0.940441 2.73184e-07 0)
(0.94044 1.15186e-07 0)
(0.940442 -2.73198e-07 0)
(0.945262 -1.11166e-07 0)
(0.945261 2.8138e-07 0)
(0.94526 1.11018e-07 0)
(0.945262 -2.81394e-07 0)
(0.94957 -1.07191e-07 0)
(0.94957 2.88666e-07 0)
(0.949569 1.07049e-07 0)
(0.949571 -2.88679e-07 0)
(0.953459 -1.03451e-07 0)
(0.953459 2.95139e-07 0)
(0.953458 1.03314e-07 0)
(0.95346 -2.95152e-07 0)
(0.956998 -9.99579e-08 0)
(0.956998 3.00881e-07 0)
(0.956997 9.98256e-08 0)
(0.956999 -3.00894e-07 0)
(0.960241 -9.6715e-08 0)
(0.960241 3.05958e-07 0)
(0.96024 9.65872e-08 0)
(0.960241 -3.0597e-07 0)
(0.963231 -9.37184e-08 0)
(0.963231 3.10423e-07 0)
(0.96323 9.35949e-08 0)
(0.963231 -3.10434e-07 0)
(0.966003 -9.09627e-08 0)
(0.966003 3.14318e-07 0)
(0.966002 9.08432e-08 0)
(0.966003 -3.14328e-07 0)
(0.968584 -8.84411e-08 0)
(0.968584 3.17678e-07 0)
(0.968584 8.83253e-08 0)
(0.968585 -3.17688e-07 0)
(0.970999 -8.61466e-08 0)
(0.970999 3.20534e-07 0)
(0.970999 8.60343e-08 0)
(0.970999 -3.20543e-07 0)
(0.973266 -8.40719e-08 0)
(0.973266 3.22911e-07 0)
(0.973266 8.39629e-08 0)
(0.973266 -3.22919e-07 0)
(0.975402 -8.22091e-08 0)
(0.975402 3.24833e-07 0)
(0.975402 8.21032e-08 0)
(0.975402 -3.24841e-07 0)
(0.97742 -8.05503e-08 0)
(0.97742 3.26321e-07 0)
(0.97742 8.04474e-08 0)
(0.97742 -3.26328e-07 0)
(0.979333 -7.90872e-08 0)
(0.979333 3.27395e-07 0)
(0.979333 7.8987e-08 0)
(0.979333 -3.27401e-07 0)
(0.98115 -7.78113e-08 0)
(0.98115 3.28071e-07 0)
(0.98115 7.77138e-08 0)
(0.98115 -3.28077e-07 0)
(0.98288 -7.67137e-08 0)
(0.98288 3.28368e-07 0)
(0.98288 7.66187e-08 0)
(0.98288 -3.28373e-07 0)
(0.984531 -7.57856e-08 0)
(0.984531 3.283e-07 0)
(0.984531 7.5693e-08 0)
(0.984531 -3.28304e-07 0)
(0.98611 -7.50179e-08 0)
(0.98611 3.27883e-07 0)
(0.98611 7.49275e-08 0)
(0.98611 -3.27886e-07 0)
(0.987622 -7.44017e-08 0)
(0.987622 3.2713e-07 0)
(0.987622 7.43135e-08 0)
(0.987622 -3.27133e-07 0)
(0.989073 -7.39277e-08 0)
(0.989073 3.26056e-07 0)
(0.989073 7.38416e-08 0)
(0.989073 -3.26058e-07 0)
(0.990467 -7.35871e-08 0)
(0.990467 3.24674e-07 0)
(0.990467 7.35031e-08 0)
(0.990467 -3.24676e-07 0)
(0.991809 -7.33708e-08 0)
(0.991809 3.22997e-07 0)
(0.991809 7.32886e-08 0)
(0.991809 -3.22998e-07 0)
(0.993101 -7.32702e-08 0)
(0.993102 3.21037e-07 0)
(0.993102 7.31899e-08 0)
(0.993102 -3.21038e-07 0)
(0.994349 -7.32758e-08 0)
(0.994349 3.18808e-07 0)
(0.994349 7.31973e-08 0)
(0.994349 -3.18808e-07 0)
(0.995553 -7.33788e-08 0)
(0.995553 3.16321e-07 0)
(0.995554 7.3302e-08 0)
(0.995553 -3.16321e-07 0)
(0.996718 -7.35696e-08 0)
(0.996718 3.13589e-07 0)
(0.996718 7.34943e-08 0)
(0.996718 -3.13588e-07 0)
(0.997845 -7.38391e-08 0)
(0.997845 3.10623e-07 0)
(0.997845 7.37655e-08 0)
(0.997845 -3.10622e-07 0)
(0.998937 -7.41777e-08 0)
(0.998937 3.07435e-07 0)
(0.998937 7.41055e-08 0)
(0.998937 -3.07434e-07 0)
(0.999996 -7.45761e-08 0)
(0.999996 3.04038e-07 0)
(0.999996 7.45055e-08 0)
(0.999996 -3.04036e-07 0)
(1.00102 -7.50247e-08 0)
(1.00102 3.00442e-07 0)
(1.00102 7.49555e-08 0)
(1.00102 -3.00439e-07 0)
(1.00202 -7.55144e-08 0)
(1.00202 2.96659e-07 0)
(1.00202 7.54466e-08 0)
(1.00202 -2.96656e-07 0)
(1.00299 -7.60352e-08 0)
(1.00299 2.927e-07 0)
(1.00299 7.59688e-08 0)
(1.00299 -2.92697e-07 0)
(1.00393 -7.65776e-08 0)
(1.00393 2.88577e-07 0)
(1.00393 7.65125e-08 0)
(1.00393 -2.88573e-07 0)
(1.00485 -7.71311e-08 0)
(1.00485 2.84299e-07 0)
(1.00485 7.70672e-08 0)
(1.00485 -2.84294e-07 0)
(1.00574 -7.76858e-08 0)
(1.00574 2.79876e-07 0)
(1.00574 7.76231e-08 0)
(1.00574 -2.79872e-07 0)
(1.00661 -7.82301e-08 0)
(1.00661 2.75319e-07 0)
(1.00661 7.81686e-08 0)
(1.00661 -2.75314e-07 0)
(1.00745 -7.87528e-08 0)
(1.00745 2.70635e-07 0)
(1.00746 7.86925e-08 0)
(1.00745 -2.7063e-07 0)
(1.00828 -7.92409e-08 0)
(1.00828 2.65832e-07 0)
(1.00828 7.91818e-08 0)
(1.00828 -2.65826e-07 0)
(1.00908 -7.96807e-08 0)
(1.00908 2.60915e-07 0)
(1.00908 7.96227e-08 0)
(1.00908 -2.60909e-07 0)
(1.00987 -8.00552e-08 0)
(1.00987 2.55885e-07 0)
(1.00987 7.99983e-08 0)
(1.00987 -2.55879e-07 0)
(1.01063 -8.03461e-08 0)
(1.01063 2.50743e-07 0)
(1.01063 8.02903e-08 0)
(1.01063 -2.50737e-07 0)
(1.01138 -8.05339e-08 0)
(1.01138 2.45484e-07 0)
(1.01138 8.04792e-08 0)
(1.01138 -2.45477e-07 0)
(1.01211 -8.06076e-08 0)
(1.01211 2.40109e-07 0)
(1.01211 8.05539e-08 0)
(1.01211 -2.40102e-07 0)
(1.01282 -8.05629e-08 0)
(1.01282 2.34633e-07 0)
(1.01282 8.05103e-08 0)
(1.01282 -2.34626e-07 0)
(1.01351 -8.04079e-08 0)
(1.01351 2.29075e-07 0)
(1.01351 8.03563e-08 0)
(1.01351 -2.29068e-07 0)
(1.01419 -8.01551e-08 0)
(1.01419 2.23462e-07 0)
(1.01419 8.01044e-08 0)
(1.01419 -2.23454e-07 0)
(1.01485 -7.98168e-08 0)
(1.01485 2.17811e-07 0)
(1.01485 7.97672e-08 0)
(1.01485 -2.17802e-07 0)
(1.0155 -7.94032e-08 0)
(1.0155 2.12133e-07 0)
(1.0155 7.93546e-08 0)
(1.0155 -2.12125e-07 0)
(1.01613 -7.89203e-08 0)
(1.01613 2.0644e-07 0)
(1.01613 7.88727e-08 0)
(1.01613 -2.06431e-07 0)
(1.01674 -7.83704e-08 0)
(1.01674 2.00738e-07 0)
(1.01674 7.83237e-08 0)
(1.01674 -2.00729e-07 0)
(1.01734 -7.77508e-08 0)
(1.01734 1.95036e-07 0)
(1.01734 7.77051e-08 0)
(1.01734 -1.95026e-07 0)
(1.01793 -7.70555e-08 0)
(1.01793 1.89336e-07 0)
(1.01793 7.70107e-08 0)
(1.01793 -1.89327e-07 0)
(1.0185 -7.62731e-08 0)
(1.0185 1.83641e-07 0)
(1.0185 7.62293e-08 0)
(1.0185 -1.83632e-07 0)
(1.01906 -7.53901e-08 0)
(1.01906 1.77949e-07 0)
(1.01906 7.53473e-08 0)
(1.01906 -1.7794e-07 0)
(1.0196 -7.43919e-08 0)
(1.0196 1.72248e-07 0)
(1.01961 7.43501e-08 0)
(1.0196 -1.72239e-07 0)
(1.02013 -7.32685e-08 0)
(1.02013 1.66535e-07 0)
(1.02014 7.32277e-08 0)
(1.02013 -1.66525e-07 0)
(1.02065 -7.20207e-08 0)
(1.02065 1.60807e-07 0)
(1.02065 7.19809e-08 0)
(1.02065 -1.60797e-07 0)
(1.02115 -7.06558e-08 0)
(1.02115 1.55076e-07 0)
(1.02115 7.06169e-08 0)
(1.02115 -1.55065e-07 0)
(1.02164 -6.91874e-08 0)
(1.02164 1.49356e-07 0)
(1.02164 6.91495e-08 0)
(1.02164 -1.49346e-07 0)
(1.02212 -6.76287e-08 0)
(1.02212 1.43661e-07 0)
(1.02212 6.75919e-08 0)
(1.02212 -1.43651e-07 0)
(1.02258 -6.59893e-08 0)
(1.02258 1.37998e-07 0)
(1.02258 6.59536e-08 0)
(1.02258 -1.37988e-07 0)
(1.02303 -6.42761e-08 0)
(1.02303 1.32374e-07 0)
(1.02303 6.42414e-08 0)
(1.02303 -1.32364e-07 0)
(1.02347 -6.24935e-08 0)
(1.02347 1.26793e-07 0)
(1.02347 6.24599e-08 0)
(1.02347 -1.26783e-07 0)
(1.02389 -6.06447e-08 0)
(1.02389 1.21256e-07 0)
(1.02389 6.06122e-08 0)
(1.02389 -1.21246e-07 0)
(1.0243 -5.87326e-08 0)
(1.0243 1.15766e-07 0)
(1.0243 5.87012e-08 0)
(1.0243 -1.15756e-07 0)
(1.02469 -5.67597e-08 0)
(1.02469 1.10324e-07 0)
(1.02469 5.67295e-08 0)
(1.02469 -1.10314e-07 0)
(1.02507 -5.47285e-08 0)
(1.02507 1.0493e-07 0)
(1.02507 5.46995e-08 0)
(1.02507 -1.04921e-07 0)
(1.02544 -5.26412e-08 0)
(1.02544 9.95869e-08 0)
(1.02544 5.26134e-08 0)
(1.02544 -9.95772e-08 0)
(1.02579 -5.04998e-08 0)
(1.02579 9.4293e-08 0)
(1.02579 5.04733e-08 0)
(1.02579 -9.42835e-08 0)
(1.02613 -4.83062e-08 0)
(1.02613 8.90485e-08 0)
(1.02613 4.82809e-08 0)
(1.02613 -8.90393e-08 0)
(1.02645 -4.60621e-08 0)
(1.02645 8.38532e-08 0)
(1.02645 4.60381e-08 0)
(1.02645 -8.38442e-08 0)
(1.02676 -4.37692e-08 0)
(1.02676 7.87063e-08 0)
(1.02676 4.37465e-08 0)
(1.02676 -7.86976e-08 0)
(1.02705 -4.14294e-08 0)
(1.02705 7.3607e-08 0)
(1.02705 4.14081e-08 0)
(1.02705 -7.35986e-08 0)
(1.02733 -3.90448e-08 0)
(1.02733 6.8554e-08 0)
(1.02733 3.90248e-08 0)
(1.02733 -6.85459e-08 0)
(1.02759 -3.66178e-08 0)
(1.02759 6.35461e-08 0)
(1.02759 3.65993e-08 0)
(1.02759 -6.35384e-08 0)
(1.02783 -3.41507e-08 0)
(1.02783 5.85819e-08 0)
(1.02783 3.41337e-08 0)
(1.02783 -5.85746e-08 0)
(1.02806 -3.16454e-08 0)
(1.02806 5.36597e-08 0)
(1.02806 3.16299e-08 0)
(1.02806 -5.36528e-08 0)
(1.02827 -2.91026e-08 0)
(1.02827 4.8778e-08 0)
(1.02827 2.90886e-08 0)
(1.02827 -4.87716e-08 0)
(1.02846 -2.65222e-08 0)
(1.02846 4.39353e-08 0)
(1.02846 2.65097e-08 0)
(1.02846 -4.39295e-08 0)
(1.02864 -2.39032e-08 0)
(1.02864 3.91311e-08 0)
(1.02864 2.38921e-08 0)
(1.02864 -3.91258e-08 0)
(1.02879 -2.12444e-08 0)
(1.02879 3.43654e-08 0)
(1.02879 2.12349e-08 0)
(1.02879 -3.43607e-08 0)
(1.02893 -1.85446e-08 0)
(1.02893 2.96399e-08 0)
(1.02893 1.85366e-08 0)
(1.02893 -2.96359e-08 0)
(1.02904 -1.58028e-08 0)
(1.02904 2.49575e-08 0)
(1.02904 1.57964e-08 0)
(1.02904 -2.49542e-08 0)
(1.02914 -1.30186e-08 0)
(1.02914 2.03221e-08 0)
(1.02914 1.30138e-08 0)
(1.02914 -2.03196e-08 0)
(1.02921 -1.01913e-08 0)
(1.02921 1.57384e-08 0)
(1.02921 1.01881e-08 0)
(1.02921 -1.57367e-08 0)
(1.02926 -7.31898e-09 0)
(1.02926 1.12084e-08 0)
(1.02926 7.31727e-09 0)
(1.02926 -1.12075e-08 0)
(1.02928 -4.40273e-09 0)
(1.02928 6.73193e-09 0)
(1.02928 4.40296e-09 0)
(1.02928 -6.73268e-09 0)
(1.02929 -1.46315e-09 0)
(1.02929 2.24597e-09 0)
(1.02929 1.46293e-09 0)
(1.02929 -2.24565e-09 0)
)
;

boundaryField
{
    inlet
    {
        type            cyclic;
    }
    outlet
    {
        type            cyclic;
    }
    fixedWalls-bottom
    {
        type            noSlip;
    }
    fixedWalls-top
    {
        type            symmetry;
    }
    frontAndBack
    {
        type            empty;
    }
}


// ************************************************************************* //
