/*--------------------------------*- C++ -*----------------------------------*\
  =========                 |
  \\      /  F ield         | OpenFOAM: The Open Source CFD Toolbox
   \\    /   O peration     | Website:  https://openfoam.org
    \\  /    A nd           | Version:  10
     \\/     M anipulation  |
\*---------------------------------------------------------------------------*/
FoamFile
{
    format      ascii;
    class       volScalarField;
    location    "2682";
    object      omega;
}
// * * * * * * * * * * * * * * * * * * * * * * * * * * * * * * * * * * * * * //

dimensions      [0 0 -1 0 0 0 0];

internalField   nonuniform List<scalar> 
400
(
11292.7
11292.7
11292.7
11292.7
1931.56
1931.56
1931.56
1931.56
649.884
649.884
649.884
649.884
305.662
305.661
305.661
305.661
173.528
173.526
173.526
173.526
110.99
110.985
110.984
110.985
77.1804
77.172
77.171
77.1722
57.1786
57.1658
57.1646
57.1662
44.5447
44.5275
44.5263
44.5282
36.1396
36.1187
36.1177
36.1195
30.2877
30.2647
30.2643
30.2656
26.0346
26.0113
26.012
26.0118
22.8111
22.7896
22.7901
22.7904
20.2688
20.2504
20.2514
20.2512
18.1923
18.1779
18.1796
18.1789
16.4479
16.4378
16.4406
16.4394
14.9521
14.9464
14.9504
14.9484
13.6542
13.6514
13.6561
13.6548
12.5186
12.5177
12.5232
12.5222
11.5202
11.5208
11.527
11.526
10.6402
10.6418
10.6483
10.6472
9.86482
9.86682
9.87321
9.87193
9.18233
9.18427
9.19036
9.1885
8.58209
8.58392
8.58975
8.5871
8.05485
8.05661
8.06219
8.05886
7.59206
7.59376
7.59915
7.5952
7.18572
7.18838
7.19245
7.18819
6.82844
6.83258
6.83492
6.83048
6.51422
6.51967
6.51984
6.51515
6.23749
6.24218
6.24169
6.2363
5.99214
5.99592
5.99491
5.98871
5.77343
5.77638
5.77488
5.76785
5.5773
5.57949
5.57758
5.56966
5.40021
5.40176
5.3995
5.3907
5.23925
5.24031
5.23771
5.22811
5.09191
5.09282
5.08978
5.07958
4.95682
4.95735
4.95378
4.94327
4.83241
4.83272
4.82842
4.81777
4.71724
4.71742
4.71254
4.70162
4.60986
4.60996
4.60471
4.59341
4.50916
4.50918
4.50381
4.49198
4.41426
4.41419
4.40902
4.39644
4.32445
4.3243
4.31965
4.30607
4.2392
4.23898
4.23504
4.22034
4.15814
4.15797
4.15424
4.13883
4.08098
4.08066
4.07619
4.06131
4.00736
4.00681
4.00174
3.98708
3.93693
3.93619
3.9305
3.9158
3.86936
3.86856
3.86206
3.84718
3.80434
3.80356
3.79606
3.78093
3.74157
3.74085
3.73222
3.71678
3.68073
3.68005
3.6703
3.65448
3.62148
3.62076
3.61017
3.5938
3.56361
3.5628
3.55164
3.53457
3.507
3.50608
3.49457
3.47665
3.4516
3.45056
3.43886
3.41997
3.39735
3.39618
3.38441
3.36445
3.3442
3.3429
3.33117
3.31002
3.2921
3.2907
3.27911
3.25666
3.24103
3.23956
3.22823
3.20434
3.19091
3.18955
3.17855
3.15302
3.14172
3.14056
3.12994
3.10272
3.09341
3.09256
3.08222
3.0535
3.046
3.04585
3.03505
3.00548
2.99951
3.00169
2.98813
2.95883
2.95396
2.95812
2.94172
2.9137
2.90942
2.91409
2.89216
2.87051
2.86636
2.87131
2.84641
2.82646
2.82455
2.82882
2.79903
2.78341
2.78311
2.78721
2.75472
2.74031
2.74198
2.74645
2.71271
2.6976
2.70134
2.7064
2.67288
2.6554
2.6614
2.66698
2.6357
2.61358
2.62242
2.62809
2.60225
2.57173
2.58514
2.58949
2.57342
2.52928
2.55189
2.54959
2.54456
2.48713
2.53003
2.49846
2.50874
2.44791
2.49028
2.46534
2.46934
2.41039
2.43716
2.44504
2.43235
2.37429
2.40141
2.41069
2.39708
2.33962
2.36688
2.37736
2.35861
2.30726
2.33312
2.34577
2.32114
2.2753
2.30086
2.3148
2.28076
2.24465
2.26937
2.28401
2.24731
2.21274
2.23858
2.25381
2.21635
2.18136
2.20864
2.22426
2.18697
2.15093
2.17975
2.19516
2.16099
2.12106
2.1527
2.16595
2.14237
2.09099
2.13068
2.13448
2.13301
2.0602
2.12426
2.08812
2.12161
2.02916
2.08091
2.07944
2.09307
2.00208
2.08009
2.02966
2.06807
1.97501
2.05101
2.01173
2.03476
1.95001
2.00087
2.01449
2.01024
1.9282
1.97962
1.99365
1.98866
1.90987
1.96533
1.96776
1.96243
1.89755
1.97292
1.91538
1.93686
1.88545
1.9505
1.89646
1.90176
1.8672
1.924
1.88755
1.87192
1.84017
1.89446
1.90717
1.83215
1.79978
)
;

boundaryField
{
    inlet
    {
        type            cyclic;
    }
    outlet
    {
        type            cyclic;
    }
    fixedWalls-bottom
    {
        beta1           0.075;
        blended         0;
        type            omegaWallFunction;
        value           uniform 11292.7;
    }
    fixedWalls-top
    {
        type            symmetry;
    }
    frontAndBack
    {
        type            empty;
    }
}


// ************************************************************************* //
