/*--------------------------------*- C++ -*----------------------------------*\
  =========                 |
  \\      /  F ield         | OpenFOAM: The Open Source CFD Toolbox
   \\    /   O peration     | Website:  https://openfoam.org
    \\  /    A nd           | Version:  10
     \\/     M anipulation  |
\*---------------------------------------------------------------------------*/
FoamFile
{
    format      ascii;
    class       volScalarField;
    location    "2682";
    object      p;
}
// * * * * * * * * * * * * * * * * * * * * * * * * * * * * * * * * * * * * * //

dimensions      [0 2 -2 0 0 0 0];

internalField   nonuniform List<scalar> 
400
(
6.1737e-12
-3.65712e-06
-9.82473e-06
-6.17606e-06
-2.71635e-09
-3.65965e-06
-9.82199e-06
-6.17353e-06
-5.51822e-09
-3.66252e-06
-9.81919e-06
-6.17066e-06
-7.75298e-09
-3.66525e-06
-9.81695e-06
-6.16793e-06
-9.40283e-09
-3.6679e-06
-9.8153e-06
-6.16528e-06
-1.04662e-08
-3.67056e-06
-9.81424e-06
-6.16262e-06
-1.08674e-08
-3.67327e-06
-9.81384e-06
-6.15991e-06
-1.04989e-08
-3.67605e-06
-9.81421e-06
-6.15713e-06
-9.2308e-09
-3.67888e-06
-9.81548e-06
-6.1543e-06
-6.91016e-09
-3.68166e-06
-9.8178e-06
-6.15152e-06
-3.35402e-09
-3.68424e-06
-9.82135e-06
-6.14894e-06
1.64401e-09
-3.68645e-06
-9.82635e-06
-6.14673e-06
8.34235e-09
-3.68815e-06
-9.83305e-06
-6.14503e-06
1.7033e-08
-3.68948e-06
-9.84174e-06
-6.14371e-06
2.80567e-08
-3.69099e-06
-9.85276e-06
-6.1422e-06
4.18285e-08
-3.69376e-06
-9.86653e-06
-6.13943e-06
5.8856e-08
-3.69929e-06
-9.88356e-06
-6.13391e-06
8.00273e-08
-3.7089e-06
-9.90474e-06
-6.12429e-06
1.06397e-07
-3.72373e-06
-9.93111e-06
-6.10947e-06
1.37999e-07
-3.7437e-06
-9.96272e-06
-6.0895e-06
1.71798e-07
-3.76343e-06
-9.99651e-06
-6.06978e-06
2.06465e-07
-3.78051e-06
-1.00312e-05
-6.0527e-06
2.43817e-07
-3.79855e-06
-1.00685e-05
-6.03466e-06
2.84293e-07
-3.81879e-06
-1.0109e-05
-6.01442e-06
3.27728e-07
-3.84126e-06
-1.01524e-05
-5.99196e-06
3.73922e-07
-3.86589e-06
-1.01986e-05
-5.96733e-06
4.22688e-07
-3.89269e-06
-1.02474e-05
-5.94053e-06
4.73782e-07
-3.92163e-06
-1.02985e-05
-5.9116e-06
5.26924e-07
-3.9525e-06
-1.03516e-05
-5.88073e-06
5.81878e-07
-3.98498e-06
-1.04066e-05
-5.84825e-06
6.38553e-07
-4.01865e-06
-1.04633e-05
-5.81458e-06
6.97111e-07
-4.05307e-06
-1.05218e-05
-5.78017e-06
7.58207e-07
-4.08777e-06
-1.05829e-05
-5.74548e-06
8.23366e-07
-4.1223e-06
-1.06481e-05
-5.71096e-06
8.95378e-07
-4.1562e-06
-1.07201e-05
-5.67706e-06
9.78176e-07
-4.18915e-06
-1.08029e-05
-5.6441e-06
1.0761e-06
-4.22244e-06
-1.09008e-05
-5.61078e-06
1.19567e-06
-4.26006e-06
-1.10203e-05
-5.57311e-06
1.34013e-06
-4.30696e-06
-1.11647e-05
-5.5262e-06
1.47827e-06
-4.36106e-06
-1.13029e-05
-5.47226e-06
1.51858e-06
-4.40243e-06
-1.13432e-05
-5.43121e-06
1.46392e-06
-4.42805e-06
-1.12886e-05
-5.40582e-06
1.39499e-06
-4.4556e-06
-1.12196e-05
-5.37832e-06
1.32537e-06
-4.49113e-06
-1.115e-05
-5.34279e-06
1.25076e-06
-4.53342e-06
-1.10753e-05
-5.30045e-06
1.16978e-06
-4.57565e-06
-1.09944e-05
-5.25817e-06
1.08299e-06
-4.61274e-06
-1.09076e-05
-5.22104e-06
9.88982e-07
-4.64449e-06
-1.08136e-05
-5.18926e-06
8.84996e-07
-4.67077e-06
-1.07096e-05
-5.16296e-06
7.6806e-07
-4.69045e-06
-1.05926e-05
-5.14326e-06
6.35767e-07
-4.70205e-06
-1.04603e-05
-5.13168e-06
4.86716e-07
-4.70463e-06
-1.03113e-05
-5.12912e-06
3.20937e-07
-4.69874e-06
-1.01455e-05
-5.13506e-06
1.39415e-07
-4.68619e-06
-9.96396e-06
-5.14767e-06
-5.69433e-08
-4.669e-06
-9.76758e-06
-5.16494e-06
-2.67714e-07
-4.64885e-06
-9.55678e-06
-5.18517e-06
-4.92785e-07
-4.62706e-06
-9.33168e-06
-5.20704e-06
-7.32165e-07
-4.60477e-06
-9.09228e-06
-5.22941e-06
-9.8598e-07
-4.5832e-06
-8.83844e-06
-5.25108e-06
-1.25467e-06
-4.56399e-06
-8.56973e-06
-5.27037e-06
-1.53913e-06
-4.5495e-06
-8.28525e-06
-5.28492e-06
-1.8398e-06
-4.54216e-06
-7.98457e-06
-5.29226e-06
-2.15594e-06
-4.54308e-06
-7.66842e-06
-5.29123e-06
-2.48869e-06
-4.55064e-06
-7.33567e-06
-5.28345e-06
-2.84518e-06
-4.56028e-06
-6.97918e-06
-5.27342e-06
-3.22456e-06
-4.56298e-06
-6.59982e-06
-5.27024e-06
-3.60923e-06
-4.53307e-06
-6.2152e-06
-5.2998e-06
-3.99524e-06
-4.45702e-06
-5.82925e-06
-5.37577e-06
-4.38943e-06
-4.33025e-06
-5.43506e-06
-5.50279e-06
-4.79481e-06
-4.15452e-06
-5.02958e-06
-5.6791e-06
-5.21719e-06
-3.95541e-06
-4.60699e-06
-5.87899e-06
-5.65936e-06
-3.75603e-06
-4.16456e-06
-6.07917e-06
-6.12309e-06
-3.57876e-06
-3.70064e-06
-6.25711e-06
-6.6138e-06
-3.45626e-06
-3.20988e-06
-6.37978e-06
-7.13827e-06
-3.42519e-06
-2.68544e-06
-6.41011e-06
-7.6764e-06
-3.46434e-06
-2.1473e-06
-6.36975e-06
-8.15061e-06
-3.44771e-06
-1.67302e-06
-6.38635e-06
-8.58185e-06
-3.36202e-06
-1.24187e-06
-6.47317e-06
-9.09653e-06
-3.3641e-06
-7.27183e-07
-6.4714e-06
-9.68151e-06
-3.46233e-06
-1.42193e-07
-6.37196e-06
-1.02526e-05
-3.5489e-06
4.2897e-07
-6.28407e-06
-1.0795e-05
-3.58635e-06
9.71368e-07
-6.24601e-06
-1.13145e-05
-3.56195e-06
1.49088e-06
-6.27055e-06
-1.18152e-05
-3.4915e-06
1.99158e-06
-6.34155e-06
-1.22986e-05
-3.41324e-06
2.4752e-06
-6.42029e-06
-1.27613e-05
-3.34196e-06
2.93798e-06
-6.49194e-06
-1.31988e-05
-3.29056e-06
3.3755e-06
-6.54358e-06
-1.36055e-05
-3.28858e-06
3.78215e-06
-6.54552e-06
-1.39644e-05
-3.35656e-06
4.14087e-06
-6.4772e-06
-1.42433e-05
-3.4497e-06
4.41976e-06
-6.38382e-06
-1.44813e-05
-3.55693e-06
4.65782e-06
-6.27648e-06
-1.46769e-05
-3.6284e-06
4.85347e-06
-6.20534e-06
-1.48209e-05
-3.63258e-06
4.99747e-06
-6.20178e-06
-1.49756e-05
-3.67223e-06
5.15222e-06
-6.16224e-06
-1.51231e-05
-3.7519e-06
5.29979e-06
-6.08226e-06
-1.52169e-05
-3.80573e-06
5.39365e-06
-6.02843e-06
-1.52428e-05
-3.80648e-06
5.4195e-06
-6.02802e-06
-1.52328e-05
-3.77732e-06
5.40958e-06
-6.05743e-06
-1.52292e-05
-3.7546e-06
5.40602e-06
-6.08028e-06
-1.5241e-05
-3.744e-06
5.41796e-06
-6.09094e-06
)
;

boundaryField
{
    inlet
    {
        type            cyclic;
    }
    outlet
    {
        type            cyclic;
    }
    fixedWalls-bottom
    {
        type            zeroGradient;
    }
    fixedWalls-top
    {
        type            symmetry;
    }
    frontAndBack
    {
        type            empty;
    }
}


// ************************************************************************* //
