/*--------------------------------*- C++ -*----------------------------------*\
  =========                 |
  \\      /  F ield         | OpenFOAM: The Open Source CFD Toolbox
   \\    /   O peration     | Website:  https://openfoam.org
    \\  /    A nd           | Version:  10
     \\/     M anipulation  |
\*---------------------------------------------------------------------------*/
FoamFile
{
    format      ascii;
    class       surfaceScalarField;
    location    "2682";
    object      phi;
}
// * * * * * * * * * * * * * * * * * * * * * * * * * * * * * * * * * * * * * //

dimensions      [0 3 -1 0 0 0 0];

internalField   nonuniform List<scalar> 
696
(
0.000117737
-1.13162e-08
0.000117746
-8.97211e-09
0.000117735
1.12199e-08
8.97518e-09
0.000358768
-4.18538e-08
0.000358794
-3.54295e-08
0.000358763
4.17525e-08
3.54376e-08
0.000608839
-8.94828e-08
0.000608882
-7.92721e-08
0.000608835
8.93785e-08
7.92853e-08
0.000868182
-1.5235e-07
0.000868243
-1.40407e-07
0.00086818
1.52241e-07
1.40425e-07
0.00113702
-2.28648e-07
0.0011371
-2.18615e-07
0.00113702
2.28535e-07
2.18639e-07
0.00141553
-3.16708e-07
0.00141563
-3.13513e-07
0.00141554
3.16589e-07
3.13543e-07
0.00170384
-4.15061e-07
0.00170396
-4.24489e-07
0.00170386
4.14939e-07
4.24525e-07
0.00200194
-5.22517e-07
0.00200206
-5.50583e-07
0.00200196
5.22389e-07
5.50624e-07
0.00230962
-6.38187e-07
0.00230976
-6.90277e-07
0.00230965
6.38055e-07
6.90325e-07
0.00262646
-7.61512e-07
0.00262661
-8.41213e-07
0.00262648
7.61374e-07
8.41267e-07
0.00295172
-8.92206e-07
0.00295188
-9.99893e-07
0.00295175
8.92063e-07
9.99954e-07
0.00328441
-1.03021e-06
0.00328458
-1.16166e-06
0.00328444
1.03006e-06
1.16173e-06
0.00362326
-1.17544e-06
0.00362342
-1.3209e-06
0.00362327
1.17528e-06
1.32097e-06
0.00396677
-1.32749e-06
0.00396692
-1.4719e-06
0.00396676
1.32733e-06
1.47198e-06
0.00431334
-1.48536e-06
0.00431348
-1.61036e-06
0.00431332
1.4852e-06
1.61045e-06
0.00466137
-1.64692e-06
0.00466149
-1.73481e-06
0.00466133
1.64674e-06
1.73491e-06
0.00500934
-1.80884e-06
0.00500946
-1.84789e-06
0.0050093
1.80867e-06
1.848e-06
0.00535597
-1.96596e-06
0.00535608
-1.95503e-06
0.00535592
1.96578e-06
1.95514e-06
0.00570026
-2.11146e-06
0.00570037
-2.06312e-06
0.00570022
2.11128e-06
2.06324e-06
0.00604153
-2.23878e-06
0.00604165
-2.1809e-06
0.00604152
2.23859e-06
2.18103e-06
0.00637978
-2.35177e-06
0.0063799
-2.30147e-06
0.00637979
2.35157e-06
2.3016e-06
0.00671589
-2.45769e-06
0.006716
-2.41337e-06
0.0067159
2.45749e-06
2.41351e-06
0.00705059
-2.55781e-06
0.00705069
-2.51633e-06
0.00705059
2.5576e-06
2.51648e-06
0.00738409
-2.65299e-06
0.00738418
-2.61113e-06
0.00738409
2.65278e-06
2.61128e-06
0.00771662
-2.74416e-06
0.00771671
-2.69866e-06
0.00771662
2.74394e-06
2.69881e-06
0.0080485
-2.83234e-06
0.00804858
-2.77977e-06
0.0080485
2.83211e-06
2.77994e-06
0.00838007
-2.91881e-06
0.00838015
-2.85519e-06
0.00838006
2.91858e-06
2.85536e-06
0.00871173
-3.00523e-06
0.0087118
-2.92527e-06
0.00871171
3.00499e-06
2.92544e-06
0.00904386
-3.09366e-06
0.00904392
-2.9896e-06
0.00904384
3.09342e-06
2.98978e-06
0.00937689
-3.18643e-06
0.00937695
-3.0467e-06
0.00937686
3.18618e-06
3.04688e-06
0.00971122
-3.28571e-06
0.00971127
-3.09369e-06
0.00971117
3.28546e-06
3.09388e-06
0.0100472
-3.39285e-06
0.0100473
-3.12614e-06
0.0100472
3.39259e-06
3.12634e-06
0.0103852
-3.50713e-06
0.0103853
-3.13786e-06
0.0103851
3.50687e-06
3.13807e-06
0.0107255
-3.62386e-06
0.0107255
-3.12092e-06
0.0107254
3.62359e-06
3.12114e-06
0.0110683
-3.73156e-06
0.0110683
-3.06605e-06
0.0110682
3.73129e-06
3.06627e-06
0.0114138
-3.809e-06
0.0114137
-2.96325e-06
0.0114136
3.80872e-06
2.96347e-06
0.0117624
-3.82542e-06
0.0117623
-2.80531e-06
0.0117623
3.82513e-06
2.80555e-06
0.0121147
-3.73963e-06
0.0121145
-2.59335e-06
0.0121146
3.73934e-06
2.59359e-06
0.012471
-3.50262e-06
0.0124707
-2.34114e-06
0.012471
3.50232e-06
2.34138e-06
0.0128315
-3.09111e-06
0.0128313
-2.07295e-06
0.0128317
3.0908e-06
2.0732e-06
0.0131972
-2.6501e-06
0.0131969
-1.78444e-06
0.0131974
2.64978e-06
1.7847e-06
0.0135687
-2.31293e-06
0.0135684
-1.46934e-06
0.0135687
2.31261e-06
1.46961e-06
0.0139463
-2.05927e-06
0.013946
-1.15039e-06
0.0139462
2.05894e-06
1.15067e-06
0.0143303
-1.86841e-06
0.01433
-8.49155e-07
0.0143302
1.86807e-06
8.49441e-07
0.0147209
-1.72134e-06
0.0147206
-5.82864e-07
0.0147208
1.72099e-06
5.83158e-07
0.0151183
-1.59975e-06
0.0151181
-3.55157e-07
0.0151182
1.5994e-06
3.55461e-07
0.0155228
-1.48658e-06
0.0155226
-1.60055e-07
0.0155227
1.48622e-06
1.60369e-07
0.0159346
-1.36976e-06
0.0159344
7.95198e-09
0.0159345
1.36939e-06
-7.62743e-09
0.0163539
-1.24332e-06
0.0163537
1.5419e-07
0.0163539
1.24294e-06
-1.53854e-07
0.0167809
-1.10731e-06
0.0167808
2.84456e-07
0.0167809
1.10691e-06
-2.84108e-07
0.0172158
-9.66458e-07
0.0172157
4.05512e-07
0.0172158
9.66054e-07
-4.0515e-07
0.0176588
-8.28327e-07
0.0176587
5.24759e-07
0.0176588
8.27909e-07
-5.24383e-07
0.0181101
-7.00231e-07
0.01811
6.48593e-07
0.0181101
6.99798e-07
-6.48202e-07
0.0185699
-5.87021e-07
0.0185698
7.8104e-07
0.0185699
5.86573e-07
-7.80633e-07
0.0190383
-4.9082e-07
0.0190382
9.24075e-07
0.0190383
4.90356e-07
-9.23651e-07
0.0195156
-4.11556e-07
0.0195154
1.07854e-06
0.0195155
4.11075e-07
-1.0781e-06
0.0200018
-3.47244e-07
0.0200016
1.24489e-06
0.0200017
3.46746e-07
-1.24443e-06
0.0204971
-2.93974e-07
0.020497
1.42343e-06
0.020497
2.93458e-07
-1.42295e-06
0.0210019
-2.45781e-07
0.0210017
1.61378e-06
0.0210017
2.45246e-07
-1.61328e-06
0.0215161
-1.94668e-07
0.0215159
1.81338e-06
0.0215159
1.94115e-07
-1.81286e-06
0.02204
-1.31531e-07
0.0220398
2.01489e-06
0.0220398
1.30959e-07
-2.01436e-06
0.0225737
-4.62073e-08
0.0225735
2.20411e-06
0.0225736
4.56167e-08
-2.20355e-06
0.0231175
7.35775e-08
0.0231173
2.35981e-06
0.0231174
-7.41862e-08
-2.35924e-06
0.0236715
2.38732e-07
0.0236714
2.45668e-06
0.0236715
-2.39359e-07
-2.45609e-06
0.0242359
4.38547e-07
0.0242359
2.4703e-06
0.0242361
-4.39192e-07
-2.46969e-06
0.0248109
6.47249e-07
0.024811
2.37839e-06
0.0248112
-6.47911e-07
-2.37776e-06
0.0253967
8.66384e-07
0.0253968
2.21275e-06
0.025397
-8.67064e-07
-2.2121e-06
0.0259934
1.08975e-06
0.0259936
2.02634e-06
0.0259938
-1.09045e-06
-2.02567e-06
0.0266013
1.28705e-06
0.0266015
1.87977e-06
0.0266016
-1.28776e-06
-1.87908e-06
0.0272205
1.42989e-06
0.0272206
1.84706e-06
0.0272207
-1.43061e-06
-1.84637e-06
0.0278513
1.48889e-06
0.0278511
1.95306e-06
0.0278512
-1.48962e-06
-1.95236e-06
0.0284936
1.45039e-06
0.0284934
2.19393e-06
0.0284934
-1.45113e-06
-2.19322e-06
0.0291478
1.32171e-06
0.0291475
2.53991e-06
0.0291474
-1.32245e-06
-2.5392e-06
0.029814
1.12318e-06
0.0298136
2.9143e-06
0.0298134
-1.12391e-06
-2.9136e-06
0.0304924
8.61802e-07
0.0304921
3.16395e-06
0.0304919
-8.62527e-07
-3.16325e-06
0.0311831
5.23249e-07
0.0311831
3.15129e-06
0.0311828
-5.23964e-07
-3.1506e-06
0.0318863
2.80619e-07
0.0318864
3.10939e-06
0.0318861
-2.81317e-07
-3.10872e-06
0.0326022
2.93137e-07
0.032602
3.34136e-06
0.032602
-2.93816e-07
-3.34071e-06
0.0333307
3.65866e-07
0.0333305
3.59633e-06
0.0333305
-3.66534e-07
-3.59569e-06
0.0340718
3.80468e-07
0.0340719
3.58291e-06
0.0340719
-3.81127e-07
-3.58227e-06
0.0348258
4.24165e-07
0.034826
3.34804e-06
0.0348261
-4.24806e-07
-3.34742e-06
0.0355926
5.14924e-07
0.035593
2.98309e-06
0.035593
-5.15529e-07
-2.9825e-06
0.0363723
6.12971e-07
0.0363727
2.61939e-06
0.0363727
-6.13512e-07
-2.61887e-06
0.0371648
6.62296e-07
0.0371651
2.35401e-06
0.0371651
-6.62752e-07
-2.35357e-06
0.0379699
6.14017e-07
0.0379701
2.16471e-06
0.03797
-6.14375e-07
-2.16436e-06
0.0387874
4.49854e-07
0.0387875
2.03212e-06
0.0387874
-4.50109e-07
-2.03188e-06
0.0396169
1.80027e-07
0.0396169
1.95306e-06
0.0396167
-1.80191e-07
-1.95291e-06
0.0404578
-1.59097e-07
0.0404578
1.8729e-06
0.0404575
1.58977e-07
-1.87279e-06
0.0413093
-5.08212e-07
0.0413096
1.64557e-06
0.0413092
5.08078e-07
-1.64544e-06
0.0421705
-6.52768e-07
0.0421708
1.35265e-06
0.0421707
6.52573e-07
-1.35247e-06
0.0430397
-6.62077e-07
0.0430401
9.63992e-07
0.0430401
6.61805e-07
-9.63728e-07
0.0439148
-6.27942e-07
0.0439151
5.81071e-07
0.0439152
6.27643e-07
-5.8078e-07
0.044793
-4.75567e-07
0.0447931
5.45109e-07
0.0447932
4.7526e-07
-5.44808e-07
0.0456709
-3.88151e-07
0.0456709
5.48056e-07
0.045671
3.87747e-07
-5.47657e-07
0.046544
-3.75474e-07
0.0465442
3.14371e-07
0.0465443
3.74927e-07
-3.13828e-07
0.0474072
-3.52479e-07
0.0474076
-3.18485e-08
0.0474076
3.5186e-07
3.24656e-08
0.0482544
-2.49518e-07
0.0482546
-2.35857e-07
0.0482547
2.48954e-07
2.36418e-07
0.0490785
-9.37368e-08
0.0490785
-2.11104e-07
0.0490786
9.33205e-08
2.1152e-07
0.0498723
2.00094e-08
0.0498722
-1.00068e-07
0.0498723
-2.02294e-08
1.00288e-07
0.0506291
0.050629
0.050629
)
;

boundaryField
{
    inlet
    {
        type            cyclic;
        value           nonuniform List<scalar> 
100
(
-0.0506291
-0.0498724
-0.0490787
-0.0482545
-0.0474073
-0.046544
-0.045671
-0.0447932
-0.0439148
-0.0430397
-0.0421704
-0.041309
-0.0404574
-0.0396166
-0.0387872
-0.0379699
-0.0371648
-0.0363724
-0.0355927
-0.0348258
-0.0340719
-0.0333308
-0.0326022
-0.0318861
-0.0311827
-0.0304921
-0.0298138
-0.0291477
-0.0284936
-0.0278513
-0.0272207
-0.0266015
-0.0259936
-0.0253969
-0.0248111
-0.0242361
-0.0236716
-0.0231176
-0.0225738
-0.02204
-0.0215161
-0.0210019
-0.0204972
-0.0200018
-0.0195156
-0.0190384
-0.01857
-0.0181103
-0.017659
-0.0172159
-0.016781
-0.016354
-0.0159347
-0.0155229
-0.0151184
-0.014721
-0.0143305
-0.0139466
-0.013569
-0.0131976
-0.0128319
-0.0124712
-0.0121148
-0.0117624
-0.0114137
-0.0110682
-0.0107254
-0.0103851
-0.0100471
-0.00971112
-0.0093768
-0.00904377
-0.00871164
-0.00837999
-0.00804841
-0.00771653
-0.00738399
-0.00705049
-0.00671579
-0.00637967
-0.0060414
-0.00570011
-0.00535582
-0.00500918
-0.00466121
-0.00431318
-0.00396661
-0.00362311
-0.00328428
-0.00295159
-0.00262633
-0.00230951
-0.00200183
-0.00170375
-0.00141545
-0.00113694
-0.000868119
-0.000608791
-0.000358737
-0.000117726
)
;
    }
    outlet
    {
        type            cyclic;
        value           nonuniform List<scalar> 
100
(
0.0506291
0.0498724
0.0490787
0.0482545
0.0474073
0.046544
0.045671
0.0447932
0.0439148
0.0430397
0.0421704
0.041309
0.0404574
0.0396166
0.0387872
0.0379699
0.0371648
0.0363724
0.0355927
0.0348258
0.0340719
0.0333308
0.0326022
0.0318861
0.0311827
0.0304921
0.0298138
0.0291477
0.0284936
0.0278513
0.0272207
0.0266015
0.0259936
0.0253969
0.0248111
0.0242361
0.0236716
0.0231176
0.0225738
0.02204
0.0215161
0.0210019
0.0204972
0.0200018
0.0195156
0.0190384
0.01857
0.0181103
0.017659
0.0172159
0.016781
0.016354
0.0159347
0.0155229
0.0151184
0.014721
0.0143305
0.0139466
0.013569
0.0131976
0.0128319
0.0124712
0.0121148
0.0117624
0.0114137
0.0110682
0.0107254
0.0103851
0.0100471
0.00971112
0.0093768
0.00904377
0.00871164
0.00837999
0.00804841
0.00771653
0.00738399
0.00705049
0.00671579
0.00637967
0.0060414
0.00570011
0.00535582
0.00500918
0.00466121
0.00431318
0.00396661
0.00362311
0.00328428
0.00295159
0.00262633
0.00230951
0.00200183
0.00170375
0.00141545
0.00113694
0.000868119
0.000608791
0.000358737
0.000117726
)
;
    }
    fixedWalls-bottom
    {
        type            calculated;
        value           uniform 0;
    }
    fixedWalls-top
    {
        type            symmetry;
        value           uniform 0;
    }
    frontAndBack
    {
        type            empty;
        value           nonuniform List<scalar> 0();
    }
}


// ************************************************************************* //
