/*--------------------------------*- C++ -*----------------------------------*\
  =========                 |
  \\      /  F ield         | OpenFOAM: The Open Source CFD Toolbox
   \\    /   O peration     | Website:  https://openfoam.org
    \\  /    A nd           | Version:  10
     \\/     M anipulation  |
\*---------------------------------------------------------------------------*/
FoamFile
{
    format      ascii;
    class       volVectorField;
    location    "2682";
    object      U;
}
// * * * * * * * * * * * * * * * * * * * * * * * * * * * * * * * * * * * * * //

dimensions      [0 1 -1 0 0 0 0];

internalField   nonuniform List<vector> 
400
(
(0.0127582 -2.20175e-09 0)
(0.0127604 -1.37804e-09 0)
(0.0127601 2.1485e-09 0)
(0.0127582 1.37959e-09 0)
(0.0383365 -2.30383e-08 0)
(0.0383428 -1.86087e-08 0)
(0.038342 2.29347e-08 0)
(0.0383365 1.86141e-08 0)
(0.0641536 -6.18445e-08 0)
(0.0641637 -5.31631e-08 0)
(0.0641628 6.17346e-08 0)
(0.064154 5.31736e-08 0)
(0.090209 -1.17522e-07 0)
(0.0902226 -1.05663e-07 0)
(0.0902216 1.17415e-07 0)
(0.0902098 1.05679e-07 0)
(0.1165 -1.87659e-07 0)
(0.116517 -1.7551e-07 0)
(0.116516 1.87549e-07 0)
(0.116502 1.75531e-07 0)
(0.143021 -2.70311e-07 0)
(0.143041 -2.62263e-07 0)
(0.14304 2.70195e-07 0)
(0.143023 2.6229e-07 0)
(0.169758 -3.63903e-07 0)
(0.16978 -3.65462e-07 0)
(0.16978 3.63782e-07 0)
(0.169761 3.65495e-07 0)
(0.196684 -4.67114e-07 0)
(0.196709 -4.84384e-07 0)
(0.196709 4.66989e-07 0)
(0.196688 4.84422e-07 0)
(0.223759 -5.78905e-07 0)
(0.223786 -6.1785e-07 0)
(0.223786 5.78774e-07 0)
(0.223764 6.17895e-07 0)
(0.250916 -6.98546e-07 0)
(0.250945 -7.63964e-07 0)
(0.250945 6.98411e-07 0)
(0.250922 7.64016e-07 0)
(0.27807 -8.25632e-07 0)
(0.2781 -9.19809e-07 0)
(0.2781 8.25491e-07 0)
(0.278076 9.19867e-07 0)
(0.30511 -9.60046e-07 0)
(0.305141 -1.08128e-06 0)
(0.30514 9.599e-07 0)
(0.305116 1.08134e-06 0)
(0.331909 -1.10172e-06 0)
(0.331939 -1.24297e-06 0)
(0.331938 1.10157e-06 0)
(0.331913 1.24304e-06 0)
(0.358325 -1.25058e-06 0)
(0.358354 -1.39906e-06 0)
(0.358352 1.25042e-06 0)
(0.358327 1.39914e-06 0)
(0.384216 -1.40595e-06 0)
(0.384243 -1.54421e-06 0)
(0.38424 1.40579e-06 0)
(0.384215 1.54429e-06 0)
(0.409445 -1.56643e-06 0)
(0.40947 -1.67541e-06 0)
(0.409467 1.56626e-06 0)
(0.409442 1.6755e-06 0)
(0.433893 -1.72953e-06 0)
(0.433917 -1.79341e-06 0)
(0.433913 1.72935e-06 0)
(0.433889 1.79351e-06 0)
(0.457468 -1.89037e-06 0)
(0.457489 -1.90198e-06 0)
(0.457486 1.89018e-06 0)
(0.457463 1.90209e-06 0)
(0.480105 -2.04224e-06 0)
(0.480125 -2.00932e-06 0)
(0.480124 2.04206e-06 0)
(0.480101 2.00944e-06 0)
(0.501774 -2.17745e-06 0)
(0.501793 -2.12485e-06 0)
(0.501794 2.17726e-06 0)
(0.501772 2.12497e-06 0)
(0.5225 -2.29922e-06 0)
(0.522518 -2.24059e-06 0)
(0.52252 2.29903e-06 0)
(0.5225 2.24072e-06 0)
(0.54238 -2.40714e-06 0)
(0.542397 -2.35882e-06 0)
(0.542398 2.40694e-06 0)
(0.54238 2.35896e-06 0)
(0.561494 -2.50929e-06 0)
(0.561509 -2.46733e-06 0)
(0.56151 2.50908e-06 0)
(0.561493 2.46748e-06 0)
(0.579876 -2.60666e-06 0)
(0.579891 -2.56613e-06 0)
(0.579891 2.60644e-06 0)
(0.579876 2.56628e-06 0)
(0.597565 -2.69962e-06 0)
(0.597578 -2.65697e-06 0)
(0.597578 2.6994e-06 0)
(0.597564 2.65712e-06 0)
(0.614599 -2.78899e-06 0)
(0.614612 -2.74104e-06 0)
(0.614611 2.78877e-06 0)
(0.614598 2.7412e-06 0)
(0.63102 -2.87593e-06 0)
(0.631033 -2.8192e-06 0)
(0.631032 2.87571e-06 0)
(0.63102 2.81936e-06 0)
(0.646872 -2.96192e-06 0)
(0.646884 -2.89198e-06 0)
(0.646882 2.96169e-06 0)
(0.646872 2.89215e-06 0)
(0.662196 -3.04885e-06 0)
(0.662208 -2.95942e-06 0)
(0.662206 3.04861e-06 0)
(0.662196 2.9596e-06 0)
(0.677034 -3.13896e-06 0)
(0.677046 -3.02065e-06 0)
(0.677042 3.13871e-06 0)
(0.677033 3.02083e-06 0)
(0.691424 -3.23466e-06 0)
(0.691435 -3.07355e-06 0)
(0.69143 3.23441e-06 0)
(0.691421 3.07375e-06 0)
(0.7054 -3.338e-06 0)
(0.705411 -3.11454e-06 0)
(0.705405 3.33775e-06 0)
(0.705396 3.11473e-06 0)
(0.718994 -3.44972e-06 0)
(0.719003 -3.13831e-06 0)
(0.718995 3.44946e-06 0)
(0.718988 3.13851e-06 0)
(0.732229 -3.56761e-06 0)
(0.732237 -3.13779e-06 0)
(0.732226 3.56734e-06 0)
(0.732221 3.13799e-06 0)
(0.745125 -3.68398e-06 0)
(0.74513 -3.10405e-06 0)
(0.745117 3.68371e-06 0)
(0.745115 3.10426e-06 0)
(0.7577 -3.78306e-06 0)
(0.757701 -3.0264e-06 0)
(0.757686 3.78278e-06 0)
(0.757691 3.02662e-06 0)
(0.769988 -3.84019e-06 0)
(0.769984 -2.89593e-06 0)
(0.769968 3.8399e-06 0)
(0.769982 2.89616e-06 0)
(0.782025 -3.81241e-06 0)
(0.782014 -2.70952e-06 0)
(0.781997 3.81212e-06 0)
(0.782025 2.7098e-06 0)
(0.79383 -3.63999e-06 0)
(0.793813 -2.47748e-06 0)
(0.793798 3.63974e-06 0)
(0.793843 2.47781e-06 0)
(0.805427 -3.29025e-06 0)
(0.805404 -2.21902e-06 0)
(0.805393 3.28992e-06 0)
(0.805456 2.21916e-06 0)
(0.816861 -2.89381e-06 0)
(0.816837 -1.92691e-06 0)
(0.816825 2.89346e-06 0)
(0.816892 1.92706e-06 0)
(0.828176 -2.46959e-06 0)
(0.828153 -1.62544e-06 0)
(0.828137 2.46931e-06 0)
(0.828195 1.62578e-06 0)
(0.839386 -2.16521e-06 0)
(0.839366 -1.30625e-06 0)
(0.839348 2.1649e-06 0)
(0.839397 1.30654e-06 0)
(0.850502 -1.94838e-06 0)
(0.850484 -9.93461e-07 0)
(0.850466 1.94805e-06 0)
(0.850507 9.93741e-07 0)
(0.861534 -1.78628e-06 0)
(0.861518 -7.08451e-07 0)
(0.861502 1.78594e-06 0)
(0.861536 7.08738e-07 0)
(0.872488 -1.65603e-06 0)
(0.872475 -4.59626e-07 0)
(0.872462 1.65568e-06 0)
(0.872489 4.59929e-07 0)
(0.883374 -1.54163e-06 0)
(0.883362 -2.49266e-07 0)
(0.883352 1.54128e-06 0)
(0.883376 2.49576e-07 0)
(0.894198 -1.42861e-06 0)
(0.894187 -6.96e-08 0)
(0.894179 1.42824e-06 0)
(0.894201 6.9917e-08 0)
(0.904966 -1.30779e-06 0)
(0.904955 8.57656e-08 0)
(0.904949 1.30742e-06 0)
(0.904969 -8.54382e-08 0)
(0.915681 -1.17615e-06 0)
(0.915671 2.22438e-07 0)
(0.915667 1.17577e-06 0)
(0.915686 -2.22098e-07 0)
(0.92635 -1.03656e-06 0)
(0.92634 3.46711e-07 0)
(0.926337 1.03616e-06 0)
(0.926356 -3.46358e-07 0)
(0.936975 -8.9566e-07 0)
(0.936966 4.65749e-07 0)
(0.936962 8.95249e-07 0)
(0.936981 -4.65379e-07 0)
(0.947559 -7.61141e-07 0)
(0.947551 5.86275e-07 0)
(0.947546 7.60716e-07 0)
(0.947565 -5.8589e-07 0)
(0.958104 -6.39482e-07 0)
(0.958097 7.13643e-07 0)
(0.958091 6.39043e-07 0)
(0.958109 -7.13241e-07 0)
(0.968613 -5.34408e-07 0)
(0.968607 8.50934e-07 0)
(0.968598 5.33953e-07 0)
(0.968617 -8.50515e-07 0)
(0.979086 -4.46924e-07 0)
(0.979081 9.9946e-07 0)
(0.97907 4.46452e-07 0)
(0.979089 -9.99023e-07 0)
(0.989525 -3.75883e-07 0)
(0.98952 1.15977e-06 0)
(0.989509 3.75394e-07 0)
(0.989527 -1.15932e-06 0)
(0.999932 -3.18284e-07 0)
(0.999927 1.33232e-06 0)
(0.999914 3.17777e-07 0)
(0.999932 -1.33185e-06 0)
(1.01031 -2.69119e-07 0)
(1.0103 1.51734e-06 0)
(1.01029 2.68594e-07 0)
(1.01031 -1.51685e-06 0)
(1.02065 -2.21468e-07 0)
(1.02064 1.71373e-06 0)
(1.02063 2.20923e-07 0)
(1.02065 -1.71323e-06 0)
(1.03097 -1.67299e-07 0)
(1.03096 1.91667e-06 0)
(1.03095 1.66736e-07 0)
(1.03096 -1.91615e-06 0)
(1.04125 -9.61667e-08 0)
(1.04124 2.11547e-06 0)
(1.04123 9.55844e-08 0)
(1.04125 -2.11494e-06 0)
(1.05151 5.35917e-09 0)
(1.05149 2.2923e-06 0)
(1.05149 -5.95802e-09 0)
(1.0515 -2.29176e-06 0)
(1.06174 1.49595e-07 0)
(1.06172 2.4237e-06 0)
(1.06173 -1.50207e-07 0)
(1.06173 -2.42315e-06 0)
(1.07194 3.27992e-07 0)
(1.07192 2.48101e-06 0)
(1.07193 -3.28616e-07 0)
(1.07193 -2.48041e-06 0)
(1.08211 5.32395e-07 0)
(1.08209 2.43321e-06 0)
(1.08212 -5.33074e-07 0)
(1.08211 -2.43266e-06 0)
(1.09225 7.59538e-07 0)
(1.09224 2.30903e-06 0)
(1.09227 -7.60222e-07 0)
(1.09226 -2.30834e-06 0)
(1.10237 9.81934e-07 0)
(1.10236 2.11071e-06 0)
(1.10239 -9.82653e-07 0)
(1.10238 -2.11011e-06 0)
(1.11246 1.20225e-06 0)
(1.11245 1.94315e-06 0)
(1.11247 -1.20297e-06 0)
(1.11247 -1.94241e-06 0)
(1.12253 1.37932e-06 0)
(1.12252 1.8442e-06 0)
(1.12253 -1.37999e-06 0)
(1.12253 -1.84343e-06 0)
(1.13256 1.48414e-06 0)
(1.13256 1.87626e-06 0)
(1.13255 -1.4848e-06 0)
(1.13257 -1.87549e-06 0)
(1.14257 1.49554e-06 0)
(1.14258 2.05679e-06 0)
(1.14255 -1.49621e-06 0)
(1.14257 -2.05601e-06 0)
(1.15255 1.41077e-06 0)
(1.15256 2.37145e-06 0)
(1.15252 -1.41148e-06 0)
(1.15255 -2.37067e-06 0)
(1.16249 1.23938e-06 0)
(1.16251 2.75475e-06 0)
(1.16246 -1.24019e-06 0)
(1.1625 -2.75391e-06 0)
(1.1724 9.80247e-07 0)
(1.17244 3.04943e-06 0)
(1.17238 -9.81166e-07 0)
(1.17242 -3.04864e-06 0)
(1.18228 6.43089e-07 0)
(1.18233 3.11991e-06 0)
(1.18228 -6.43752e-07 0)
(1.1823 -3.11969e-06 0)
(1.19215 4.28913e-07 0)
(1.19217 3.16609e-06 0)
(1.19215 -4.29453e-07 0)
(1.19215 -3.1651e-06 0)
(1.20199 2.9979e-07 0)
(1.20196 3.26161e-06 0)
(1.20197 -3.00548e-07 0)
(1.20196 -3.26081e-06 0)
(1.21176 2.67954e-07 0)
(1.21172 3.43409e-06 0)
(1.21174 -2.68665e-07 0)
(1.21173 -3.43414e-06 0)
(1.22148 3.45808e-07 0)
(1.22145 3.60794e-06 0)
(1.22148 -3.4646e-07 0)
(1.22145 -3.60718e-06 0)
(1.23114 3.93554e-07 0)
(1.23112 3.50245e-06 0)
(1.23116 -3.94211e-07 0)
(1.23113 -3.50175e-06 0)
(1.24075 4.63635e-07 0)
(1.24074 3.1718e-06 0)
(1.24077 -4.64351e-07 0)
(1.24074 -3.17147e-06 0)
(1.25029 5.7281e-07 0)
(1.25029 2.81592e-06 0)
(1.25032 -5.73427e-07 0)
(1.25029 -2.81517e-06 0)
(1.25977 6.56012e-07 0)
(1.25977 2.48174e-06 0)
(1.25979 -6.56491e-07 0)
(1.25977 -2.48113e-06 0)
(1.26916 6.61979e-07 0)
(1.26917 2.24931e-06 0)
(1.26917 -6.62339e-07 0)
(1.26916 -2.24875e-06 0)
(1.27845 5.57157e-07 0)
(1.27847 2.10171e-06 0)
(1.27846 -5.57381e-07 0)
(1.27845 -2.10119e-06 0)
(1.28763 3.3013e-07 0)
(1.28765 2.01581e-06 0)
(1.28764 -3.30294e-07 0)
(1.28763 -2.0153e-06 0)
(1.29667 -5.71956e-09 0)
(1.2967 1.9296e-06 0)
(1.29668 5.45512e-09 0)
(1.29668 -1.92927e-06 0)
(1.30555 -3.79751e-07 0)
(1.30559 1.72853e-06 0)
(1.30556 3.79658e-07 0)
(1.30557 -1.72929e-06 0)
(1.31425 -5.60722e-07 0)
(1.31427 1.53921e-06 0)
(1.31426 5.60694e-07 0)
(1.31426 -1.53857e-06 0)
(1.32269 -7.51044e-07 0)
(1.3227 1.0566e-06 0)
(1.32271 7.50785e-07 0)
(1.32269 -1.05747e-06 0)
(1.33082 -5.94466e-07 0)
(1.33082 7.97932e-07 0)
(1.33084 5.94062e-07 0)
(1.33082 -7.97519e-07 0)
(1.33857 -5.16783e-07 0)
(1.33855 5.99889e-07 0)
(1.33857 5.16573e-07 0)
(1.33855 -5.99058e-07 0)
(1.34582 -4.77487e-07 0)
(1.3458 5.02079e-07 0)
(1.34582 4.77176e-07 0)
(1.34581 -5.01888e-07 0)
(1.35247 -4.16704e-07 0)
(1.35247 4.27624e-07 0)
(1.35248 4.16234e-07 0)
(1.35247 -4.26982e-07 0)
(1.3584 -3.72836e-07 0)
(1.3584 1.26902e-07 0)
(1.35841 3.72065e-07 0)
(1.3584 -1.26753e-07 0)
(1.36345 -2.44553e-07 0)
(1.36345 -1.29939e-07 0)
(1.36346 2.43942e-07 0)
(1.36345 1.30615e-07 0)
(1.36745 -1.36148e-07 0)
(1.36744 -2.41373e-07 0)
(1.36745 1.35757e-07 0)
(1.36745 2.42154e-07 0)
(1.37025 -2.473e-08 0)
(1.37024 -1.64291e-07 0)
(1.37024 2.44399e-08 0)
(1.37024 1.64661e-07 0)
(1.3717 -2.21747e-09 0)
(1.37169 -5.07557e-08 0)
(1.37169 2.04377e-09 0)
(1.37169 5.08499e-08 0)
)
;

boundaryField
{
    inlet
    {
        type            cyclic;
    }
    outlet
    {
        type            cyclic;
    }
    fixedWalls-bottom
    {
        type            noSlip;
    }
    fixedWalls-top
    {
        type            symmetry;
    }
    frontAndBack
    {
        type            empty;
    }
}


// ************************************************************************* //
