/*--------------------------------*- C++ -*----------------------------------*\
  =========                 |
  \\      /  F ield         | OpenFOAM: The Open Source CFD Toolbox
   \\    /   O peration     | Website:  https://openfoam.org
    \\  /    A nd           | Version:  10
     \\/     M anipulation  |
\*---------------------------------------------------------------------------*/
FoamFile
{
    format      ascii;
    class       volScalarField;
    location    "2500";
    object      k;
}
// * * * * * * * * * * * * * * * * * * * * * * * * * * * * * * * * * * * * * //

dimensions      [0 2 -2 0 0 0 0];

internalField   nonuniform List<scalar> 
400
(
3.92382e-05
3.92371e-05
3.92317e-05
3.92325e-05
0.00115403
0.001154
0.00115384
0.00115387
0.00637903
0.00637886
0.00637812
0.00637824
0.0124239
0.0124236
0.0124224
0.0124226
0.0167866
0.0167862
0.0167846
0.016785
0.0201946
0.0201941
0.0201922
0.0201926
0.0231183
0.0231177
0.0231156
0.023116
0.0257539
0.0257532
0.0257508
0.0257513
0.0281898
0.0281891
0.0281865
0.028187
0.0304732
0.0304724
0.0304696
0.0304701
0.0326332
0.0326323
0.0326293
0.0326299
0.0346899
0.0346891
0.0346858
0.0346864
0.0366582
0.0366574
0.0366539
0.0366546
0.0385494
0.0385486
0.038545
0.0385456
0.0403727
0.0403719
0.0403681
0.0403687
0.0421352
0.0421344
0.0421304
0.042131
0.0438428
0.0438421
0.0438378
0.0438384
0.0455005
0.0454998
0.0454954
0.045496
0.0471124
0.0471117
0.0471071
0.0471077
0.0486819
0.0486812
0.0486764
0.048677
0.0502119
0.0502112
0.0502062
0.0502068
0.0517048
0.0517042
0.051699
0.0516996
0.0531629
0.0531622
0.0531569
0.0531575
0.0545878
0.0545871
0.0545817
0.0545822
0.0559812
0.0559805
0.0559749
0.0559754
0.0573444
0.0573437
0.0573379
0.0573384
0.0586785
0.0586778
0.0586719
0.0586724
0.0599845
0.0599838
0.0599778
0.0599783
0.0612633
0.0612626
0.0612564
0.0612569
0.0625157
0.062515
0.0625087
0.0625091
0.0637423
0.0637415
0.0637351
0.0637356
0.0649436
0.0649428
0.0649363
0.0649367
0.0661202
0.0661194
0.0661127
0.0661131
0.0672724
0.0672716
0.0672648
0.0672652
0.0684006
0.0683998
0.0683929
0.0683933
0.0695052
0.0695044
0.0694973
0.0694977
0.0705864
0.0705855
0.0705783
0.0705787
0.0716444
0.0716435
0.0716362
0.0716366
0.0726794
0.0726785
0.0726711
0.0726715
0.0736917
0.0736907
0.0736832
0.0736836
0.0746812
0.0746803
0.0746726
0.074673
0.0756482
0.0756473
0.0756395
0.0756399
0.0765928
0.0765919
0.076584
0.0765844
0.0775151
0.0775141
0.0775061
0.0775064
0.078415
0.078414
0.0784059
0.0784063
0.0792927
0.0792917
0.0792835
0.0792838
0.0801483
0.0801472
0.0801389
0.0801393
0.0809817
0.0809806
0.0809722
0.0809726
0.081793
0.0817919
0.0817834
0.0817838
0.0825823
0.0825812
0.0825726
0.0825729
0.0833495
0.0833484
0.0833397
0.08334
0.0840947
0.0840936
0.0840849
0.0840852
0.084818
0.0848169
0.084808
0.0848083
0.0855194
0.0855182
0.0855093
0.0855096
0.0861988
0.0861977
0.0861886
0.0861889
0.0868564
0.0868552
0.0868461
0.0868464
0.0874921
0.0874909
0.0874817
0.087482
0.0881061
0.0881049
0.0880956
0.0880959
0.0886983
0.0886971
0.0886877
0.088688
0.0892689
0.0892676
0.0892582
0.0892585
0.0898178
0.0898166
0.0898071
0.0898074
0.0903452
0.090344
0.0903344
0.0903347
0.0908512
0.0908499
0.0908402
0.0908405
0.0913358
0.0913345
0.0913248
0.0913251
0.0917991
0.0917978
0.091788
0.0917883
0.0922413
0.09224
0.0922302
0.0922305
0.0926625
0.0926612
0.0926513
0.0926516
0.0930629
0.0930615
0.0930516
0.0930519
0.0934425
0.0934412
0.0934311
0.0934315
0.0938016
0.0938002
0.0937902
0.0937905
0.0941404
0.094139
0.0941289
0.0941292
0.0944591
0.0944576
0.0944475
0.0944478
0.0947578
0.0947564
0.0947462
0.0947465
0.0950369
0.0950354
0.0950252
0.0950255
0.0952966
0.0952951
0.0952848
0.0952851
0.0955372
0.0955357
0.0955254
0.0955257
0.095759
0.0957575
0.0957471
0.0957475
0.0959624
0.0959609
0.0959505
0.0959508
0.0961477
0.0961461
0.0961357
0.096136
0.0963153
0.0963137
0.0963033
0.0963036
0.0964657
0.0964641
0.0964536
0.0964539
0.0965993
0.0965977
0.0965872
0.0965875
0.0967165
0.0967149
0.0967044
0.0967047
0.0968181
0.0968164
0.0968059
0.0968062
0.0969044
0.0969027
0.0968921
0.0968924
0.0969761
0.0969744
0.0969638
0.0969641
0.097034
0.0970322
0.0970216
0.0970219
0.0970786
0.0970769
0.0970662
0.0970664
0.0971108
0.097109
0.0970983
0.0970986
0.0971314
0.0971296
0.0971188
0.0971191
0.0971413
0.0971395
0.0971286
0.0971289
0.0971414
0.0971396
0.0971287
0.097129
0.0971328
0.0971311
0.09712
0.0971203
0.0971166
0.0971149
0.0971037
0.097104
0.097094
0.0970923
0.097081
0.0970813
0.0970662
0.0970645
0.0970531
0.0970534
0.0970347
0.0970329
0.0970214
0.0970217
0.0970007
0.0969989
0.0969873
0.0969875
0.0969656
0.0969638
0.0969521
0.0969523
0.0969309
0.096929
0.0969172
0.0969174
)
;

boundaryField
{
    inlet
    {
        type            cyclic;
    }
    outlet
    {
        type            cyclic;
    }
    fixedWalls-bottom
    {
        type            kqRWallFunction;
        value           nonuniform List<scalar> 4(3.92382e-05 3.92371e-05 3.92317e-05 3.92325e-05);
    }
    fixedWalls-top
    {
        type            symmetry;
    }
    frontAndBack
    {
        type            empty;
    }
}


// ************************************************************************* //
