/*--------------------------------*- C++ -*----------------------------------*\
  =========                 |
  \\      /  F ield         | OpenFOAM: The Open Source CFD Toolbox
   \\    /   O peration     | Website:  https://openfoam.org
    \\  /    A nd           | Version:  10
     \\/     M anipulation  |
\*---------------------------------------------------------------------------*/
FoamFile
{
    format      ascii;
    class       volScalarField;
    location    "2500";
    object      omega;
}
// * * * * * * * * * * * * * * * * * * * * * * * * * * * * * * * * * * * * * //

dimensions      [0 0 -1 0 0 0 0];

internalField   nonuniform List<scalar> 
400
(
1847.54
1847.54
1847.54
1847.54
337.214
337.214
337.214
337.213
136.361
136.362
136.362
136.361
75.2004
75.2005
75.201
75.201
47.684
47.6842
47.6847
47.6846
33.3401
33.3403
33.3405
33.3404
25.0631
25.0632
25.0633
25.0632
19.8746
19.8747
19.8747
19.8744
16.3959
16.396
16.3959
16.3955
13.9343
13.9343
13.9342
13.9337
12.1154
12.1154
12.1153
12.1147
10.7236
10.7236
10.7235
10.7228
9.62801
9.62794
9.62785
9.62708
8.74495
8.74487
8.74477
8.74395
8.0191
8.01902
8.01891
8.01806
7.41248
7.4124
7.41227
7.4114
6.89825
6.89817
6.89803
6.89715
6.45695
6.45687
6.45673
6.45584
6.07418
6.0741
6.07395
6.07306
5.73903
5.73896
5.73881
5.73791
5.44315
5.44307
5.44292
5.44203
5.17998
5.1799
5.17975
5.17887
4.94435
4.94427
4.94412
4.94325
4.73212
4.73204
4.73189
4.73103
4.53991
4.53984
4.53969
4.53884
4.36498
4.36492
4.36477
4.36393
4.20506
4.20501
4.20486
4.20403
4.05823
4.05822
4.05806
4.05724
3.92295
3.92296
3.92278
3.92198
3.79786
3.79788
3.79768
3.79689
3.6818
3.68182
3.68162
3.68084
3.57379
3.57381
3.57362
3.57284
3.47299
3.47302
3.47282
3.47205
3.37868
3.3787
3.37851
3.37774
3.2902
3.29022
3.29004
3.28928
3.20702
3.20704
3.20686
3.20611
3.12865
3.12866
3.12848
3.12774
3.05465
3.05466
3.05448
3.05375
2.98464
2.98466
2.98448
2.98376
2.9183
2.91831
2.91814
2.91742
2.85532
2.85533
2.85516
2.85445
2.79543
2.79545
2.79528
2.79458
2.7384
2.73842
2.73825
2.73756
2.68402
2.68403
2.68387
2.68319
2.63208
2.63209
2.63194
2.63126
2.58242
2.58243
2.58228
2.58161
2.53488
2.53489
2.53474
2.53408
2.48931
2.48932
2.48917
2.48852
2.44559
2.4456
2.44546
2.44482
2.4036
2.40361
2.40347
2.40284
2.36324
2.36325
2.3631
2.36248
2.3244
2.32441
2.32426
2.32365
2.28699
2.287
2.28686
2.28625
2.25094
2.25095
2.25081
2.25021
2.21617
2.21618
2.21604
2.21545
2.18261
2.18262
2.18249
2.1819
2.1502
2.15021
2.15008
2.1495
2.11888
2.11889
2.11876
2.11819
2.0886
2.08862
2.08849
2.08792
2.05932
2.05933
2.0592
2.05864
2.03098
2.03099
2.03086
2.03031
2.00354
2.00355
2.00343
2.00288
1.97697
1.97699
1.97686
1.97632
1.95124
1.95125
1.95113
1.9506
1.92631
1.92632
1.9262
1.92568
1.90216
1.90217
1.90205
1.90153
1.87875
1.87876
1.87864
1.87813
1.85606
1.85607
1.85596
1.85545
1.83408
1.83409
1.83398
1.83347
1.81278
1.81279
1.81268
1.81218
1.79214
1.79215
1.79204
1.79155
1.77215
1.77216
1.77206
1.77157
1.7528
1.75281
1.75271
1.75222
1.73407
1.73408
1.73398
1.7335
1.71596
1.71597
1.71586
1.71539
1.69844
1.69846
1.69835
1.69788
1.68153
1.68154
1.68144
1.68097
1.6652
1.66521
1.66511
1.66465
1.64946
1.64947
1.64937
1.64891
1.6343
1.63432
1.63422
1.63376
1.61973
1.61974
1.61964
1.61919
1.60574
1.60575
1.60565
1.6052
1.59233
1.59235
1.59225
1.5918
1.57951
1.57953
1.57943
1.57899
1.56729
1.56731
1.56721
1.56677
1.55567
1.55569
1.55559
1.55515
1.54466
1.54468
1.54458
1.54414
1.53426
1.53428
1.53419
1.53375
1.52451
1.52453
1.52443
1.524
1.5154
1.51542
1.51532
1.51489
1.50695
1.50698
1.50688
1.50645
1.4992
1.49922
1.49912
1.4987
1.49215
1.49217
1.49208
1.49165
1.48583
1.48586
1.48576
1.48533
1.48028
1.4803
1.48021
1.47978
1.47551
1.47554
1.47544
1.47502
1.47158
1.47161
1.47151
1.47108
1.46851
1.46855
1.46844
1.46802
1.46635
1.4664
1.46628
1.46585
1.46514
1.46519
1.46507
1.46464
)
;

boundaryField
{
    inlet
    {
        type            cyclic;
    }
    outlet
    {
        type            cyclic;
    }
    fixedWalls-bottom
    {
        beta1           0.075;
        blended         0;
        type            omegaWallFunction;
        value           uniform 1847.54;
    }
    fixedWalls-top
    {
        type            symmetry;
    }
    frontAndBack
    {
        type            empty;
    }
}


// ************************************************************************* //
