/*--------------------------------*- C++ -*----------------------------------*\
  =========                 |
  \\      /  F ield         | OpenFOAM: The Open Source CFD Toolbox
   \\    /   O peration     | Website:  https://openfoam.org
    \\  /    A nd           | Version:  10
     \\/     M anipulation  |
\*---------------------------------------------------------------------------*/
FoamFile
{
    format      ascii;
    class       volVectorField;
    location    "2500";
    object      U;
}
// * * * * * * * * * * * * * * * * * * * * * * * * * * * * * * * * * * * * * //

dimensions      [0 1 -1 0 0 0 0];

internalField   nonuniform List<vector> 
400
(
(0.117252 -1.85139e-09 0)
(0.117253 2.47182e-09 0)
(0.11725 1.94177e-09 0)
(0.117249 -2.45729e-09 0)
(0.348834 -4.22154e-08 0)
(0.348835 3.16947e-08 0)
(0.348825 4.19224e-08 0)
(0.348823 -3.17075e-08 0)
(0.545465 -1.11955e-07 0)
(0.545466 7.78856e-08 0)
(0.545454 1.11842e-07 0)
(0.545451 -7.79023e-08 0)
(0.67355 -1.82072e-07 0)
(0.673551 1.26657e-07 0)
(0.673541 1.81984e-07 0)
(0.673538 -1.26683e-07 0)
(0.750884 -2.37321e-07 0)
(0.750884 1.68236e-07 0)
(0.750877 2.37247e-07 0)
(0.750874 -1.68268e-07 0)
(0.800211 -2.79056e-07 0)
(0.800211 2.02395e-07 0)
(0.800205 2.7899e-07 0)
(0.800203 -2.02432e-07 0)
(0.833874 -3.09693e-07 0)
(0.833873 2.30853e-07 0)
(0.833869 3.09632e-07 0)
(0.833868 -2.30893e-07 0)
(0.858246 -3.31497e-07 0)
(0.858246 2.55015e-07 0)
(0.858242 3.31441e-07 0)
(0.858242 -2.55058e-07 0)
(0.876763 -3.46439e-07 0)
(0.876763 2.75922e-07 0)
(0.87676 3.46387e-07 0)
(0.87676 -2.75967e-07 0)
(0.891383 -3.56182e-07 0)
(0.891382 2.94241e-07 0)
(0.89138 3.56132e-07 0)
(0.891381 -2.94288e-07 0)
(0.903285 -3.62041e-07 0)
(0.903284 3.1048e-07 0)
(0.903282 3.61994e-07 0)
(0.903283 -3.10528e-07 0)
(0.913215 -3.65053e-07 0)
(0.913214 3.24972e-07 0)
(0.913212 3.65009e-07 0)
(0.913214 -3.25021e-07 0)
(0.921667 -3.66023e-07 0)
(0.921666 3.37966e-07 0)
(0.921665 3.65982e-07 0)
(0.921666 -3.38016e-07 0)
(0.928981 -3.65549e-07 0)
(0.92898 3.49649e-07 0)
(0.928979 3.6551e-07 0)
(0.92898 -3.497e-07 0)
(0.935397 -3.64061e-07 0)
(0.935396 3.60171e-07 0)
(0.935395 3.64024e-07 0)
(0.935396 -3.60222e-07 0)
(0.941091 -3.61875e-07 0)
(0.94109 3.69653e-07 0)
(0.941089 3.6184e-07 0)
(0.94109 -3.69705e-07 0)
(0.946193 -3.59226e-07 0)
(0.946193 3.78192e-07 0)
(0.946192 3.59194e-07 0)
(0.946193 -3.78244e-07 0)
(0.950806 -3.56288e-07 0)
(0.950805 3.85866e-07 0)
(0.950805 3.56258e-07 0)
(0.950806 -3.85917e-07 0)
(0.955006 -3.53181e-07 0)
(0.955005 3.92736e-07 0)
(0.955005 3.53153e-07 0)
(0.955006 -3.92788e-07 0)
(0.958855 -3.49991e-07 0)
(0.958854 3.98855e-07 0)
(0.958854 3.49965e-07 0)
(0.958855 -3.98907e-07 0)
(0.962403 -3.46771e-07 0)
(0.962402 4.04269e-07 0)
(0.962402 3.46747e-07 0)
(0.962403 -4.0432e-07 0)
(0.965689 -3.43559e-07 0)
(0.965689 4.09017e-07 0)
(0.965688 3.43536e-07 0)
(0.965689 -4.09068e-07 0)
(0.968747 -3.40376e-07 0)
(0.968747 4.13135e-07 0)
(0.968747 3.40355e-07 0)
(0.968748 -4.13187e-07 0)
(0.971605 -3.37232e-07 0)
(0.971604 4.16654e-07 0)
(0.971604 3.37212e-07 0)
(0.971605 -4.16706e-07 0)
(0.974284 -3.34125e-07 0)
(0.974284 4.19598e-07 0)
(0.974284 3.34107e-07 0)
(0.974285 -4.19649e-07 0)
(0.976805 -3.31041e-07 0)
(0.976805 4.21984e-07 0)
(0.976805 3.31025e-07 0)
(0.976806 -4.22035e-07 0)
(0.979185 -3.27954e-07 0)
(0.979184 4.23818e-07 0)
(0.979184 3.27938e-07 0)
(0.979185 -4.23869e-07 0)
(0.981436 -3.24831e-07 0)
(0.981436 4.25108e-07 0)
(0.981436 3.24817e-07 0)
(0.981436 -4.25158e-07 0)
(0.983572 -3.21663e-07 0)
(0.983572 4.25885e-07 0)
(0.983572 3.21651e-07 0)
(0.983572 -4.25936e-07 0)
(0.985603 -3.18457e-07 0)
(0.985603 4.26174e-07 0)
(0.985603 3.18446e-07 0)
(0.985603 -4.26224e-07 0)
(0.987538 -3.15235e-07 0)
(0.987538 4.26025e-07 0)
(0.987538 3.15225e-07 0)
(0.987538 -4.26075e-07 0)
(0.989385 -3.12021e-07 0)
(0.989385 4.25464e-07 0)
(0.989386 3.12012e-07 0)
(0.989386 -4.25513e-07 0)
(0.991153 -3.08833e-07 0)
(0.991153 4.24508e-07 0)
(0.991153 3.08825e-07 0)
(0.991153 -4.24557e-07 0)
(0.992846 -3.05679e-07 0)
(0.992846 4.23172e-07 0)
(0.992846 3.05672e-07 0)
(0.992846 -4.23221e-07 0)
(0.994471 -3.02564e-07 0)
(0.994471 4.21471e-07 0)
(0.994471 3.02558e-07 0)
(0.994471 -4.21519e-07 0)
(0.996032 -2.99489e-07 0)
(0.996032 4.19419e-07 0)
(0.996032 2.99484e-07 0)
(0.996032 -4.19467e-07 0)
(0.997534 -2.96454e-07 0)
(0.997534 4.17029e-07 0)
(0.997535 2.9645e-07 0)
(0.997535 -4.17077e-07 0)
(0.998982 -2.93455e-07 0)
(0.998982 4.14315e-07 0)
(0.998982 2.93452e-07 0)
(0.998982 -4.14362e-07 0)
(1.00038 -2.90488e-07 0)
(1.00038 4.1129e-07 0)
(1.00038 2.90486e-07 0)
(1.00038 -4.11337e-07 0)
(1.00173 -2.8755e-07 0)
(1.00173 4.07966e-07 0)
(1.00173 2.87549e-07 0)
(1.00173 -4.08012e-07 0)
(1.00303 -2.84634e-07 0)
(1.00303 4.04354e-07 0)
(1.00303 2.84634e-07 0)
(1.00303 -4.044e-07 0)
(1.00429 -2.81735e-07 0)
(1.00429 4.00468e-07 0)
(1.00429 2.81735e-07 0)
(1.00429 -4.00513e-07 0)
(1.00551 -2.78847e-07 0)
(1.00551 3.96317e-07 0)
(1.00551 2.78848e-07 0)
(1.00551 -3.96362e-07 0)
(1.00669 -2.75963e-07 0)
(1.00669 3.91914e-07 0)
(1.00669 2.75964e-07 0)
(1.00669 -3.91959e-07 0)
(1.00784 -2.73076e-07 0)
(1.00784 3.8727e-07 0)
(1.00784 2.73079e-07 0)
(1.00784 -3.87314e-07 0)
(1.00895 -2.70181e-07 0)
(1.00896 3.82395e-07 0)
(1.00896 2.70184e-07 0)
(1.00896 -3.82439e-07 0)
(1.01004 -2.67269e-07 0)
(1.01004 3.77301e-07 0)
(1.01004 2.67273e-07 0)
(1.01004 -3.77344e-07 0)
(1.01109 -2.64335e-07 0)
(1.01109 3.71998e-07 0)
(1.01109 2.64339e-07 0)
(1.01109 -3.7204e-07 0)
(1.01211 -2.61372e-07 0)
(1.01211 3.66496e-07 0)
(1.01211 2.61377e-07 0)
(1.01211 -3.66538e-07 0)
(1.0131 -2.58373e-07 0)
(1.0131 3.60805e-07 0)
(1.0131 2.58378e-07 0)
(1.0131 -3.60847e-07 0)
(1.01407 -2.55331e-07 0)
(1.01407 3.54936e-07 0)
(1.01407 2.55337e-07 0)
(1.01407 -3.54977e-07 0)
(1.01501 -2.52241e-07 0)
(1.01501 3.48899e-07 0)
(1.01501 2.52247e-07 0)
(1.01501 -3.4894e-07 0)
(1.01593 -2.49097e-07 0)
(1.01593 3.42703e-07 0)
(1.01593 2.49103e-07 0)
(1.01593 -3.42743e-07 0)
(1.01682 -2.45893e-07 0)
(1.01682 3.36358e-07 0)
(1.01682 2.45899e-07 0)
(1.01682 -3.36397e-07 0)
(1.01769 -2.42622e-07 0)
(1.01769 3.29873e-07 0)
(1.01769 2.42629e-07 0)
(1.01769 -3.29912e-07 0)
(1.01854 -2.39281e-07 0)
(1.01854 3.23257e-07 0)
(1.01854 2.39289e-07 0)
(1.01854 -3.23295e-07 0)
(1.01937 -2.35865e-07 0)
(1.01937 3.16519e-07 0)
(1.01937 2.35873e-07 0)
(1.01937 -3.16557e-07 0)
(1.02018 -2.32368e-07 0)
(1.02018 3.09668e-07 0)
(1.02018 2.32377e-07 0)
(1.02018 -3.09705e-07 0)
(1.02096 -2.28788e-07 0)
(1.02096 3.02713e-07 0)
(1.02096 2.28796e-07 0)
(1.02096 -3.02749e-07 0)
(1.02173 -2.25119e-07 0)
(1.02173 2.9566e-07 0)
(1.02173 2.25128e-07 0)
(1.02173 -2.95696e-07 0)
(1.02248 -2.2136e-07 0)
(1.02248 2.88519e-07 0)
(1.02248 2.21369e-07 0)
(1.02248 -2.88555e-07 0)
(1.02321 -2.17506e-07 0)
(1.02321 2.81298e-07 0)
(1.02321 2.17515e-07 0)
(1.02321 -2.81332e-07 0)
(1.02392 -2.13556e-07 0)
(1.02392 2.74002e-07 0)
(1.02392 2.13565e-07 0)
(1.02392 -2.74036e-07 0)
(1.02461 -2.09506e-07 0)
(1.02461 2.6664e-07 0)
(1.02461 2.09516e-07 0)
(1.02461 -2.66674e-07 0)
(1.02529 -2.05357e-07 0)
(1.02529 2.59219e-07 0)
(1.02529 2.05366e-07 0)
(1.02529 -2.59252e-07 0)
(1.02595 -2.01106e-07 0)
(1.02595 2.51744e-07 0)
(1.02595 2.01115e-07 0)
(1.02595 -2.51776e-07 0)
(1.02659 -1.96752e-07 0)
(1.02659 2.44223e-07 0)
(1.02659 1.96762e-07 0)
(1.02659 -2.44254e-07 0)
(1.02722 -1.92295e-07 0)
(1.02722 2.3666e-07 0)
(1.02722 1.92305e-07 0)
(1.02722 -2.36691e-07 0)
(1.02782 -1.87735e-07 0)
(1.02782 2.29063e-07 0)
(1.02783 1.87745e-07 0)
(1.02782 -2.29093e-07 0)
(1.02842 -1.83072e-07 0)
(1.02842 2.21435e-07 0)
(1.02842 1.83082e-07 0)
(1.02842 -2.21465e-07 0)
(1.02899 -1.78306e-07 0)
(1.02899 2.13783e-07 0)
(1.02899 1.78316e-07 0)
(1.02899 -2.13812e-07 0)
(1.02955 -1.73438e-07 0)
(1.02955 2.06112e-07 0)
(1.02955 1.73448e-07 0)
(1.02955 -2.0614e-07 0)
(1.03009 -1.68467e-07 0)
(1.03009 1.98426e-07 0)
(1.0301 1.68477e-07 0)
(1.03009 -1.98453e-07 0)
(1.03062 -1.63394e-07 0)
(1.03062 1.90729e-07 0)
(1.03062 1.63404e-07 0)
(1.03062 -1.90756e-07 0)
(1.03113 -1.5822e-07 0)
(1.03113 1.83027e-07 0)
(1.03113 1.5823e-07 0)
(1.03113 -1.83053e-07 0)
(1.03163 -1.52945e-07 0)
(1.03163 1.75323e-07 0)
(1.03163 1.52955e-07 0)
(1.03163 -1.75348e-07 0)
(1.0321 -1.47572e-07 0)
(1.0321 1.6762e-07 0)
(1.0321 1.47582e-07 0)
(1.0321 -1.67644e-07 0)
(1.03256 -1.42102e-07 0)
(1.03256 1.59923e-07 0)
(1.03256 1.42112e-07 0)
(1.03256 -1.59947e-07 0)
(1.03301 -1.36538e-07 0)
(1.03301 1.52236e-07 0)
(1.03301 1.36548e-07 0)
(1.03301 -1.52258e-07 0)
(1.03344 -1.30881e-07 0)
(1.03344 1.44561e-07 0)
(1.03344 1.30891e-07 0)
(1.03344 -1.44582e-07 0)
(1.03385 -1.25135e-07 0)
(1.03385 1.36902e-07 0)
(1.03385 1.25145e-07 0)
(1.03385 -1.36923e-07 0)
(1.03424 -1.19303e-07 0)
(1.03424 1.29263e-07 0)
(1.03424 1.19312e-07 0)
(1.03424 -1.29283e-07 0)
(1.03461 -1.13388e-07 0)
(1.03461 1.21647e-07 0)
(1.03461 1.13397e-07 0)
(1.03461 -1.21666e-07 0)
(1.03497 -1.07394e-07 0)
(1.03497 1.14058e-07 0)
(1.03497 1.07402e-07 0)
(1.03497 -1.14076e-07 0)
(1.03531 -1.01324e-07 0)
(1.03531 1.06501e-07 0)
(1.03531 1.01332e-07 0)
(1.03531 -1.06518e-07 0)
(1.03563 -9.51818e-08 0)
(1.03563 9.89792e-08 0)
(1.03563 9.51896e-08 0)
(1.03563 -9.8995e-08 0)
(1.03593 -8.89725e-08 0)
(1.03593 9.14987e-08 0)
(1.03593 8.898e-08 0)
(1.03593 -9.15134e-08 0)
(1.03621 -8.26998e-08 0)
(1.03621 8.40655e-08 0)
(1.03621 8.27069e-08 0)
(1.03621 -8.4079e-08 0)
(1.03647 -7.63679e-08 0)
(1.03647 7.66865e-08 0)
(1.03647 7.63746e-08 0)
(1.03647 -7.6699e-08 0)
(1.03671 -6.99807e-08 0)
(1.03671 6.93705e-08 0)
(1.03671 6.9987e-08 0)
(1.03671 -6.93818e-08 0)
(1.03692 -6.35423e-08 0)
(1.03692 6.21276e-08 0)
(1.03692 6.35481e-08 0)
(1.03692 -6.21378e-08 0)
(1.03712 -5.70557e-08 0)
(1.03712 5.49702e-08 0)
(1.03712 5.7061e-08 0)
(1.03712 -5.49793e-08 0)
(1.03729 -5.05237e-08 0)
(1.03729 4.79135e-08 0)
(1.03729 5.05285e-08 0)
(1.03729 -4.79214e-08 0)
(1.03743 -4.39477e-08 0)
(1.03743 4.09757e-08 0)
(1.03743 4.39519e-08 0)
(1.03743 -4.09824e-08 0)
(1.03756 -3.73276e-08 0)
(1.03756 3.41785e-08 0)
(1.03756 3.73312e-08 0)
(1.03756 -3.41841e-08 0)
(1.03765 -3.06619e-08 0)
(1.03765 2.75465e-08 0)
(1.03765 3.06648e-08 0)
(1.03765 -2.75509e-08 0)
(1.03772 -2.39457e-08 0)
(1.03772 2.11046e-08 0)
(1.03772 2.39479e-08 0)
(1.03772 -2.11078e-08 0)
(1.03776 -1.71705e-08 0)
(1.03776 1.48726e-08 0)
(1.03776 1.7172e-08 0)
(1.03776 -1.48747e-08 0)
(1.03777 -1.03281e-08 0)
(1.03777 8.84488e-09 0)
(1.03777 1.03284e-08 0)
(1.03777 -8.84566e-09 0)
(1.03775 -3.43953e-09 0)
(1.03775 2.94197e-09 0)
(1.03775 3.44002e-09 0)
(1.03775 -2.94225e-09 0)
)
;

boundaryField
{
    inlet
    {
        type            cyclic;
    }
    outlet
    {
        type            cyclic;
    }
    fixedWalls-bottom
    {
        type            noSlip;
    }
    fixedWalls-top
    {
        type            symmetry;
    }
    frontAndBack
    {
        type            empty;
    }
}


// ************************************************************************* //
