/*--------------------------------*- C++ -*----------------------------------*\
  =========                 |
  \\      /  F ield         | OpenFOAM: The Open Source CFD Toolbox
   \\    /   O peration     | Website:  https://openfoam.org
    \\  /    A nd           | Version:  10
     \\/     M anipulation  |
\*---------------------------------------------------------------------------*/
FoamFile
{
    format      ascii;
    class       volScalarField;
    location    "5000";
    object      nut;
}
// * * * * * * * * * * * * * * * * * * * * * * * * * * * * * * * * * * * * * //

dimensions      [0 2 -1 0 0 0 0];

internalField   nonuniform List<scalar> 
400
(
2.03541e-15
2.03334e-15
2.03261e-15
2.0336e-15
3.56971e-13
3.56608e-13
3.56481e-13
3.56654e-13
7.51574e-12
7.50809e-12
7.50541e-12
7.50905e-12
5.81771e-11
5.81177e-11
5.8097e-11
5.81252e-11
2.66189e-10
2.65916e-10
2.65822e-10
2.65952e-10
8.88821e-10
8.87907e-10
8.87592e-10
8.88028e-10
2.41189e-09
2.40939e-09
2.40854e-09
2.40973e-09
5.65571e-09
5.64981e-09
5.64783e-09
5.65068e-09
1.19068e-08
1.18943e-08
1.18902e-08
1.18963e-08
2.3087e-08
2.30626e-08
2.30547e-08
2.30668e-08
4.19866e-08
4.19416e-08
4.19275e-08
4.19501e-08
7.26092e-08
7.25298e-08
7.25057e-08
7.25462e-08
1.20707e-07
1.20571e-07
1.20532e-07
1.20601e-07
1.94624e-07
1.94393e-07
1.94331e-07
1.94448e-07
3.06608e-07
3.06221e-07
3.06125e-07
3.06313e-07
4.74856e-07
4.74204e-07
4.74058e-07
4.74357e-07
7.26666e-07
7.25562e-07
7.25341e-07
7.2581e-07
1.10333e-06
1.10144e-06
1.10111e-06
1.10184e-06
1.66772e-06
1.66447e-06
1.66396e-06
1.66511e-06
2.51617e-06
2.51054e-06
2.50976e-06
2.5116e-06
3.79708e-06
3.7873e-06
3.78609e-06
3.78906e-06
5.74015e-06
5.72318e-06
5.72125e-06
5.72615e-06
8.70218e-06
8.67286e-06
8.66967e-06
8.67796e-06
1.32381e-05
1.31878e-05
1.31821e-05
1.31967e-05
2.02088e-05
2.01234e-05
2.01137e-05
2.01392e-05
3.09355e-05
3.07949e-05
3.07763e-05
3.08224e-05
4.7401e-05
4.71781e-05
4.71382e-05
4.7227e-05
6.157e-05
6.15479e-05
6.15261e-05
6.15409e-05
6.81116e-05
6.80925e-05
6.80691e-05
6.8084e-05
7.4759e-05
7.47432e-05
7.47184e-05
7.47333e-05
8.14811e-05
8.14689e-05
8.1443e-05
8.14577e-05
8.82386e-05
8.82302e-05
8.82035e-05
8.82177e-05
9.49934e-05
9.49891e-05
9.49618e-05
9.49753e-05
0.000101708
0.000101708
0.000101681
0.000101693
0.000108347
0.000108352
0.000108324
0.000108336
0.000114949
0.000114957
0.000114928
0.00011494
0.000121563
0.000121575
0.000121544
0.000121557
0.00012823
0.000128243
0.00012821
0.000128226
0.000134977
0.000134992
0.000134956
0.000134975
0.000141827
0.000141841
0.000141804
0.000141826
0.000148794
0.000148808
0.000148768
0.000148795
0.000155889
0.000155902
0.00015586
0.000155891
0.00016312
0.000163132
0.000163087
0.000163123
0.000170491
0.000170501
0.000170453
0.000170495
0.000178006
0.000178012
0.000177961
0.00017801
0.000185664
0.000185666
0.000185611
0.000185669
0.000193465
0.000193463
0.000193404
0.000193471
0.000201407
0.0002014
0.000201336
0.000201414
0.000209485
0.000209473
0.000209403
0.000209495
0.000217696
0.000217678
0.000217602
0.000217708
0.000226032
0.000226009
0.000225926
0.000226048
0.000234486
0.000234456
0.000234366
0.000234506
0.000243047
0.000243011
0.000242913
0.000243073
0.000251704
0.000251661
0.000251554
0.000251737
0.000260442
0.000260393
0.000260276
0.000260483
0.000269245
0.000269188
0.000269062
0.000269295
0.000278092
0.000278027
0.000277891
0.000278152
0.000286959
0.000286887
0.00028674
0.000287031
0.00029582
0.00029574
0.000295581
0.000295905
0.000304641
0.000304553
0.000304384
0.000304742
0.000313386
0.000313291
0.000313111
0.000313504
0.000322012
0.00032191
0.000321719
0.000322149
0.00033047
0.000330361
0.000330161
0.000330628
0.000338703
0.000338588
0.000338379
0.000338883
0.000346648
0.000346528
0.00034631
0.000346851
0.000354231
0.000354108
0.000353881
0.000354457
0.000361371
0.000361246
0.000361012
0.000361619
0.000367976
0.00036785
0.000367609
0.000368243
0.000373943
0.000373817
0.000373571
0.000374224
0.000379156
0.000379032
0.000378781
0.000379444
0.000383487
0.000383368
0.000383112
0.000383771
0.000386792
0.000386681
0.000386417
0.000387056
0.000388906
0.000388804
0.000388531
0.000389128
0.000389629
0.000389539
0.000389249
0.000389779
0.000388706
0.000388633
0.00038831
0.000388742
0.000385906
0.000385852
0.000385494
0.000385847
0.000381128
0.000381089
0.000380693
0.000380984
0.000374274
0.000374248
0.00037381
0.000374054
0.000365261
0.000365246
0.000364761
0.000364973
0.000354017
0.000354011
0.00035348
0.000353666
0.000340461
0.000340459
0.00033988
0.000340049
0.000324141
0.000324119
0.000323458
0.000323649
0.000241892
0.000238763
0.00023197
0.000238196
0.000144763
0.000143218
0.000139878
0.00014267
9.3106e-05
9.23548e-05
9.06159e-05
9.19064e-05
6.26041e-05
6.22751e-05
6.13702e-05
6.19382e-05
4.35505e-05
4.34748e-05
4.30046e-05
4.32217e-05
3.14788e-05
3.14357e-05
3.12094e-05
3.12669e-05
2.35143e-05
2.34892e-05
2.33707e-05
2.33757e-05
1.79788e-05
1.79634e-05
1.7886e-05
1.7885e-05
1.39446e-05
1.39338e-05
1.38767e-05
1.38816e-05
1.0909e-05
1.09001e-05
1.08528e-05
1.08641e-05
8.59689e-06
8.5892e-06
8.54893e-06
8.56594e-06
6.84539e-06
6.83907e-06
6.80528e-06
6.82666e-06
5.53376e-06
5.5285e-06
5.50029e-06
5.52432e-06
4.56717e-06
4.56256e-06
4.53904e-06
4.5642e-06
3.87404e-06
3.86974e-06
3.85007e-06
3.87538e-06
3.40342e-06
3.39926e-06
3.38259e-06
3.40752e-06
3.12166e-06
3.11751e-06
3.1029e-06
3.12739e-06
3.00901e-06
3.00473e-06
2.99114e-06
3.01541e-06
)
;

boundaryField
{
    inlet
    {
        type            cyclic;
    }
    outlet
    {
        type            cyclic;
    }
    fixedWalls-bottom
    {
        type            nutkWallFunction;
        Cmu             0.09;
        kappa           0.41;
        E               9.8;
        value           uniform 0;
    }
    fixedWalls-top
    {
        type            symmetry;
    }
    frontAndBack
    {
        type            empty;
    }
}


// ************************************************************************* //
