/*--------------------------------*- C++ -*----------------------------------*\
  =========                 |
  \\      /  F ield         | OpenFOAM: The Open Source CFD Toolbox
   \\    /   O peration     | Website:  https://openfoam.org
    \\  /    A nd           | Version:  10
     \\/     M anipulation  |
\*---------------------------------------------------------------------------*/
FoamFile
{
    format      ascii;
    class       volScalarField;
    location    "5000";
    object      p;
}
// * * * * * * * * * * * * * * * * * * * * * * * * * * * * * * * * * * * * * //

dimensions      [0 2 -2 0 0 0 0];

internalField   nonuniform List<scalar> 
400
(
-1.61253e-12
2.17191e-07
-8.574e-08
-3.02963e-07
-5.20037e-11
2.16988e-07
-8.56937e-08
-3.0276e-07
-1.03759e-10
2.16771e-07
-8.5643e-08
-3.02543e-07
-1.49095e-10
2.16584e-07
-8.55976e-08
-3.02356e-07
-1.89734e-10
2.16425e-07
-8.5557e-08
-3.02197e-07
-2.26113e-10
2.1629e-07
-8.55205e-08
-3.02062e-07
-2.58545e-10
2.1618e-07
-8.54883e-08
-3.01951e-07
-2.86054e-10
2.16095e-07
-8.54607e-08
-3.01866e-07
-3.08627e-10
2.16037e-07
-8.54383e-08
-3.01808e-07
-3.25348e-10
2.16008e-07
-8.54215e-08
-3.01779e-07
-3.36177e-10
2.16007e-07
-8.54108e-08
-3.01778e-07
-3.40241e-10
2.16037e-07
-8.54067e-08
-3.01808e-07
-3.37475e-10
2.16096e-07
-8.54096e-08
-3.01868e-07
-3.27142e-10
2.16187e-07
-8.54198e-08
-3.01958e-07
-3.09315e-10
2.16307e-07
-8.54378e-08
-3.02079e-07
-2.83607e-10
2.16456e-07
-8.54634e-08
-3.02227e-07
-2.50494e-10
2.16628e-07
-8.54967e-08
-3.024e-07
-2.10403e-10
2.16818e-07
-8.55367e-08
-3.02589e-07
-1.65258e-10
2.1701e-07
-8.5582e-08
-3.02781e-07
-1.18447e-10
2.17177e-07
-8.56287e-08
-3.02949e-07
-7.67489e-11
2.17275e-07
-8.56706e-08
-3.03046e-07
-5.04805e-11
2.17226e-07
-8.56968e-08
-3.02997e-07
-5.67256e-11
2.16907e-07
-8.56906e-08
-3.02678e-07
-1.3549e-10
2.16069e-07
-8.56118e-08
-3.01841e-07
-4.03205e-10
2.14125e-07
-8.53442e-08
-2.99896e-07
-1.08819e-09
2.09973e-07
-8.46592e-08
-2.95744e-07
-2.2594e-09
2.03223e-07
-8.34881e-08
-2.88995e-07
-2.82207e-09
1.98475e-07
-8.29254e-08
-2.84246e-07
-2.37427e-09
1.97577e-07
-8.33733e-08
-2.83348e-07
-1.73709e-09
1.97261e-07
-8.40104e-08
-2.83032e-07
-1.08555e-09
1.96828e-07
-8.4662e-08
-2.82599e-07
-3.83585e-10
1.96437e-07
-8.5364e-08
-2.82208e-07
3.97912e-10
1.96221e-07
-8.61456e-08
-2.81992e-07
1.26746e-09
1.96215e-07
-8.70151e-08
-2.81986e-07
2.23001e-09
1.9643e-07
-8.79777e-08
-2.82201e-07
3.27889e-09
1.96838e-07
-8.90266e-08
-2.82609e-07
4.39468e-09
1.97381e-07
-9.01424e-08
-2.83152e-07
5.5571e-09
1.98012e-07
-9.13048e-08
-2.83783e-07
6.74886e-09
1.98697e-07
-9.24967e-08
-2.84468e-07
7.95682e-09
1.9941e-07
-9.37046e-08
-2.85181e-07
9.17122e-09
2.00123e-07
-9.49191e-08
-2.85894e-07
1.03788e-08
2.00809e-07
-9.61266e-08
-2.8658e-07
1.1561e-08
2.01443e-07
-9.73088e-08
-2.87214e-07
1.2697e-08
2.01997e-07
-9.84449e-08
-2.87768e-07
1.37644e-08
2.02439e-07
-9.95124e-08
-2.8821e-07
1.47377e-08
2.02733e-07
-1.00486e-07
-2.88504e-07
1.55884e-08
2.02836e-07
-1.01336e-07
-2.88607e-07
1.62852e-08
2.02711e-07
-1.02033e-07
-2.88482e-07
1.67932e-08
2.02329e-07
-1.02541e-07
-2.881e-07
1.70719e-08
2.01659e-07
-1.0282e-07
-2.8743e-07
1.70769e-08
2.0067e-07
-1.02825e-07
-2.86441e-07
1.67609e-08
1.9933e-07
-1.02509e-07
-2.851e-07
1.60736e-08
1.97607e-07
-1.01822e-07
-2.83378e-07
1.49632e-08
1.95476e-07
-1.00711e-07
-2.81246e-07
1.33754e-08
1.92909e-07
-9.91235e-08
-2.7868e-07
1.12536e-08
1.89887e-07
-9.70017e-08
-2.75657e-07
8.5383e-09
1.86392e-07
-9.42864e-08
-2.72163e-07
5.16757e-09
1.82418e-07
-9.09157e-08
-2.68189e-07
1.07818e-09
1.77963e-07
-8.68263e-08
-2.63734e-07
-3.79235e-09
1.73039e-07
-8.19558e-08
-2.58809e-07
-9.50186e-09
1.67668e-07
-7.62463e-08
-2.53439e-07
-1.60999e-08
1.6189e-07
-6.96483e-08
-2.4766e-07
-2.36241e-08
1.55755e-07
-6.21242e-08
-2.41526e-07
-3.20961e-08
1.49333e-07
-5.36523e-08
-2.35103e-07
-4.15154e-08
1.42691e-07
-4.42331e-08
-2.28461e-07
-5.1849e-08
1.35905e-07
-3.38997e-08
-2.21675e-07
-6.30167e-08
1.29057e-07
-2.27322e-08
-2.14827e-07
-7.48824e-08
1.22242e-07
-1.08667e-08
-2.08012e-07
-8.72436e-08
1.15557e-07
1.49434e-09
-2.01327e-07
-9.9821e-08
1.09104e-07
1.40715e-08
-1.94873e-07
-1.12239e-07
1.02973e-07
2.64893e-08
-1.88743e-07
-1.24002e-07
9.72315e-08
3.82518e-08
-1.83001e-07
-1.3443e-07
9.18801e-08
4.86797e-08
-1.77649e-07
-1.42544e-07
8.68116e-08
5.67933e-08
-1.72581e-07
-1.47155e-07
8.17959e-08
6.14037e-08
-1.67565e-07
-1.47906e-07
7.66638e-08
6.21552e-08
-1.62433e-07
-1.45378e-07
7.11987e-08
5.9627e-08
-1.56968e-07
-1.40149e-07
6.49781e-08
5.43973e-08
-1.50747e-07
-1.32652e-07
5.82489e-08
4.68999e-08
-1.44017e-07
-1.23329e-07
5.41419e-08
3.75778e-08
-1.39909e-07
-1.1278e-07
5.62115e-08
2.70278e-08
-1.41977e-07
-1.01157e-07
4.12212e-08
1.54034e-08
-1.26986e-07
-8.68049e-08
-8.94241e-08
1.05539e-09
3.65659e-09
-7.16184e-08
-2.68801e-07
-1.41227e-08
1.83029e-07
-5.96419e-08
-3.60618e-07
-2.60967e-08
2.74845e-07
-5.10984e-08
-3.92868e-07
-3.46429e-08
3.07096e-07
-4.5106e-08
-4.01657e-07
-4.06385e-08
3.15886e-07
-4.10814e-08
-4.02671e-07
-4.46649e-08
3.16901e-07
-3.85821e-08
-4.01186e-07
-4.71649e-08
3.15416e-07
-3.70432e-08
-3.98768e-07
-4.87041e-08
3.12998e-07
-3.60871e-08
-3.96074e-07
-4.96603e-08
3.10305e-07
-3.54961e-08
-3.93399e-07
-5.02513e-08
3.07629e-07
-3.51365e-08
-3.90869e-07
-5.06109e-08
3.051e-07
-3.49429e-08
-3.88526e-07
-5.08045e-08
3.02757e-07
-3.4866e-08
-3.86402e-07
-5.08814e-08
3.00632e-07
-3.4859e-08
-3.84536e-07
-5.08884e-08
2.98767e-07
-3.48862e-08
-3.82971e-07
-5.08612e-08
2.97202e-07
-3.4925e-08
-3.81751e-07
-5.08224e-08
2.95982e-07
-3.49648e-08
-3.8094e-07
-5.07826e-08
2.95171e-07
-3.50066e-08
-3.80574e-07
-5.07408e-08
2.94805e-07
)
;

boundaryField
{
    inlet
    {
        type            cyclic;
    }
    outlet
    {
        type            cyclic;
    }
    fixedWalls-bottom
    {
        type            zeroGradient;
    }
    fixedWalls-top
    {
        type            symmetry;
    }
    frontAndBack
    {
        type            empty;
    }
}


// ************************************************************************* //
