/*--------------------------------*- C++ -*----------------------------------*\
  =========                 |
  \\      /  F ield         | OpenFOAM: The Open Source CFD Toolbox
   \\    /   O peration     | Website:  https://openfoam.org
    \\  /    A nd           | Version:  10
     \\/     M anipulation  |
\*---------------------------------------------------------------------------*/
FoamFile
{
    format      ascii;
    class       surfaceScalarField;
    location    "5000";
    object      phi;
}
// * * * * * * * * * * * * * * * * * * * * * * * * * * * * * * * * * * * * * //

dimensions      [0 3 -1 0 0 0 0];

internalField   nonuniform List<scalar> 
696
(
6.48178e-05
-8.73478e-12
6.48179e-05
-4.64877e-11
6.48179e-05
1.02027e-11
4.64839e-11
0.000197514
-3.78364e-11
0.000197515
-1.76708e-10
0.000197515
3.94198e-11
1.76697e-10
0.00033519
-8.52199e-11
0.00033519
-3.84327e-10
0.00033519
8.68181e-11
3.8431e-10
0.000477975
-1.49997e-10
0.000477975
-6.6345e-10
0.000477975
1.5171e-10
6.63427e-10
0.000626001
-2.31585e-10
0.000626001
-1.00749e-09
0.000626001
2.33298e-10
1.00746e-09
0.000779402
-3.28918e-10
0.000779403
-1.40904e-09
0.000779403
3.30732e-10
1.40901e-09
0.000938317
-4.41243e-10
0.000938317
-1.85995e-09
0.000938317
4.43042e-10
1.85991e-09
0.00110288
-5.6733e-10
0.00110288
-2.35113e-09
0.00110288
5.69217e-10
2.35109e-09
0.00127324
-7.06241e-10
0.00127324
-2.87275e-09
0.00127324
7.08101e-10
2.87269e-09
0.00144954
-8.56563e-10
0.00144954
-3.41393e-09
0.00144954
8.58501e-10
3.41387e-09
0.00163192
-1.01714e-09
0.00163192
-3.96304e-09
0.00163192
1.01905e-09
3.96298e-09
0.00182053
-1.18636e-09
0.00182053
-4.50738e-09
0.00182053
1.18833e-09
4.50731e-09
0.00201552
-1.3628e-09
0.00201552
-5.03349e-09
0.00201552
1.36474e-09
5.03342e-09
0.00221704
-1.5446e-09
0.00221704
-5.52694e-09
0.00221704
1.5466e-09
5.52686e-09
0.00242525
-1.73006e-09
0.00242526
-5.97273e-09
0.00242525
1.73201e-09
5.97264e-09
0.00264031
-1.91704e-09
0.00264031
-6.35526e-09
0.00264031
1.91905e-09
6.35516e-09
0.00286236
-2.10357e-09
0.00286236
-6.65916e-09
0.00286236
2.10554e-09
6.65906e-09
0.00309158
-2.28738e-09
0.00309158
-6.8699e-09
0.00309158
2.2894e-09
6.86979e-09
0.00332811
-2.46656e-09
0.00332811
-6.97584e-09
0.00332811
2.46854e-09
6.97573e-09
0.00357212
-2.63953e-09
0.00357212
-6.97106e-09
0.00357212
2.64155e-09
6.97094e-09
0.00382377
-2.80621e-09
0.00382377
-6.86121e-09
0.00382377
2.80819e-09
6.86109e-09
0.00408321
-2.9691e-09
0.00408321
-6.67293e-09
0.00408321
2.97113e-09
6.6728e-09
0.00435061
-3.13645e-09
0.00435061
-6.47138e-09
0.00435061
3.13843e-09
6.47124e-09
0.0046261
-3.32739e-09
0.0046261
-6.39015e-09
0.0046261
3.32941e-09
6.39e-09
0.00490982
-3.58316e-09
0.00490982
-6.67858e-09
0.00490982
3.58514e-09
6.67843e-09
0.00520188
-3.98267e-09
0.00520188
-7.77558e-09
0.00520188
3.98469e-09
7.77543e-09
0.00550237
-4.67616e-09
0.00550237
-1.04284e-08
0.00550237
4.67813e-09
1.04282e-08
0.00581141
-5.52483e-09
0.00581141
-1.41498e-08
0.00581141
5.52684e-09
1.41496e-08
0.00612926
-6.27877e-09
0.00612926
-1.79266e-08
0.00612926
6.28073e-09
1.79264e-08
0.00645615
-6.93365e-09
0.00645615
-2.17193e-08
0.00645615
6.93565e-09
2.17191e-08
0.00679226
-7.48614e-09
0.00679226
-2.54815e-08
0.00679226
7.48809e-09
2.54813e-08
0.00713774
-7.93349e-09
0.00713774
-2.91579e-08
0.00713774
7.93547e-09
2.91578e-08
0.00749278
-8.27317e-09
0.00749278
-3.26856e-08
0.00749278
8.2751e-09
3.26854e-08
0.00785753
-8.50179e-09
0.00785754
-3.59926e-08
0.00785754
8.50375e-09
3.59924e-08
0.00823218
-8.61386e-09
0.00823219
-3.89994e-08
0.00823219
8.61578e-09
3.89992e-08
0.00861689
-8.60455e-09
0.00861689
-4.16296e-08
0.00861689
8.60649e-09
4.16294e-08
0.00901183
-8.47276e-09
0.00901183
-4.3821e-08
0.00901183
8.47465e-09
4.38208e-08
0.00941716
-8.22047e-09
0.00941716
-4.55211e-08
0.00941716
8.22239e-09
4.55209e-08
0.00983305
-7.85145e-09
0.00983305
-4.66851e-08
0.00983305
7.85333e-09
4.66849e-08
0.0102597
-7.36947e-09
0.0102597
-4.72741e-08
0.0102597
7.37137e-09
4.72739e-08
0.0106971
-6.77627e-09
0.0106971
-4.72557e-08
0.0106971
6.77813e-09
4.72555e-08
0.0111456
-6.07156e-09
0.0111456
-4.66028e-08
0.0111456
6.07343e-09
4.66026e-08
0.0116053
-5.25363e-09
0.0116053
-4.52947e-08
0.0116053
5.25545e-09
4.52944e-08
0.0120763
-4.31875e-09
0.0120763
-4.33167e-08
0.0120763
4.32059e-09
4.33164e-08
0.0125588
-3.26075e-09
0.0125588
-4.06626e-08
0.0125588
3.26254e-09
4.06624e-08
0.0130529
-2.07084e-09
0.0130529
-3.73354e-08
0.0130529
2.07266e-09
3.73352e-08
0.0135588
-7.377e-10
0.0135588
-3.33507e-08
0.0135588
7.39464e-10
3.33505e-08
0.0140765
7.52838e-10
0.0140765
-2.87347e-08
0.0140765
-7.51061e-10
2.87344e-08
0.0146062
2.4171e-09
0.0146062
-2.35234e-08
0.0146062
-2.41537e-09
2.35231e-08
0.015148
4.2726e-09
0.015148
-1.7763e-08
0.015148
-4.27086e-09
1.77627e-08
0.015702
6.33701e-09
0.015702
-1.15125e-08
0.015702
-6.33531e-09
1.15122e-08
0.0162683
8.62737e-09
0.0162683
-4.84326e-09
0.0162683
-8.62567e-09
4.84297e-09
0.0168471
1.11587e-08
0.0168471
2.15863e-09
0.0168471
-1.11571e-08
-2.15892e-09
0.0174383
1.39429e-08
0.0174383
9.39277e-09
0.0174383
-1.39413e-08
-9.39307e-09
0.0180421
1.69864e-08
0.0180421
1.67424e-08
0.0180421
-1.69848e-08
-1.67427e-08
0.0186585
2.02875e-08
0.0186585
2.40753e-08
0.0186585
-2.02858e-08
-2.40756e-08
0.0192875
2.38323e-08
0.0192875
3.12424e-08
0.0192875
-2.38307e-08
-3.12427e-08
0.0199293
2.75904e-08
0.0199293
3.80797e-08
0.0199293
-2.75889e-08
-3.808e-08
0.0205839
3.15092e-08
0.0205839
4.44084e-08
0.0205839
-3.15077e-08
-4.44087e-08
0.0212511
3.55075e-08
0.0212511
5.00392e-08
0.0212511
-3.5506e-08
-5.00395e-08
0.0219312
3.947e-08
0.0219311
5.47745e-08
0.0219312
-3.94685e-08
-5.47748e-08
0.0226239
4.32407e-08
0.0226239
5.84169e-08
0.0226239
-4.32392e-08
-5.84172e-08
0.0233293
4.66168e-08
0.0233293
6.07742e-08
0.0233293
-4.66153e-08
-6.07745e-08
0.0240474
4.93426e-08
0.0240474
6.16727e-08
0.0240474
-4.93412e-08
-6.16731e-08
0.024778
5.11053e-08
0.024778
6.09619e-08
0.024778
-5.11039e-08
-6.09622e-08
0.0255212
5.15327e-08
0.0255212
5.853e-08
0.0255212
-5.15313e-08
-5.85303e-08
0.0262766
5.01983e-08
0.0262766
5.43194e-08
0.0262766
-5.0197e-08
-5.43198e-08
0.0270443
4.66299e-08
0.0270443
4.83537e-08
0.0270443
-4.66286e-08
-4.83541e-08
0.0278241
4.03254e-08
0.0278241
4.07602e-08
0.0278241
-4.03242e-08
-4.07606e-08
0.0286158
3.07783e-08
0.0286158
3.18067e-08
0.0286158
-3.07771e-08
-3.1807e-08
0.0294191
1.75206e-08
0.0294191
2.19294e-08
0.0294191
-1.75194e-08
-2.19297e-08
0.0302338
1.87861e-10
0.0302339
1.17682e-08
0.0302338
-1.8667e-10
-1.17685e-08
0.0310598
-2.13841e-08
0.0310598
2.18136e-09
0.0310598
2.13853e-08
-2.18168e-09
0.0318966
-4.70165e-08
0.0318966
-5.7498e-09
0.0318965
4.70176e-08
5.74948e-09
0.0327439
-7.59713e-08
0.0327439
-1.07639e-08
0.0327438
7.59723e-08
1.07635e-08
0.0336013
-1.07257e-07
0.0336013
-1.13602e-08
0.0336013
1.07258e-07
1.13599e-08
0.0344686
-1.3998e-07
0.0344686
-5.76808e-09
0.0344685
1.39981e-07
5.76777e-09
0.0353451
-1.73187e-07
0.0353451
8.01777e-09
0.035345
1.73188e-07
-8.01808e-09
0.0362304
-2.05676e-07
0.0362304
3.22748e-08
0.0362303
2.05677e-07
-3.22751e-08
0.0371239
-2.35754e-07
0.0371239
6.95959e-08
0.0371239
2.35755e-07
-6.95963e-08
0.0380251
-2.6095e-07
0.038025
1.22862e-07
0.038025
2.60951e-07
-1.22862e-07
0.0389332
-2.77675e-07
0.0389331
1.94816e-07
0.0389331
2.77676e-07
-1.94817e-07
0.0398483
-2.80455e-07
0.0398483
2.24145e-07
0.0398483
2.80456e-07
-2.24145e-07
0.0407708
-2.66536e-07
0.0407709
1.82698e-07
0.0407709
2.66536e-07
-1.82698e-07
0.0416992
-2.39053e-07
0.0416992
1.20966e-07
0.0416993
2.39054e-07
-1.20966e-07
0.0426313
-2.03179e-07
0.0426314
6.13252e-08
0.0426314
2.0318e-07
-6.13255e-08
0.0435657
-1.63864e-07
0.0435658
1.32395e-08
0.0435658
1.63865e-07
-1.32397e-08
0.0445009
-1.25088e-07
0.0445009
-2.09127e-08
0.044501
1.25089e-07
2.09124e-08
0.0454353
-8.966e-08
0.0454353
-4.24318e-08
0.0454354
8.96604e-08
4.24315e-08
0.0463675
-5.91858e-08
0.0463675
-5.37559e-08
0.0463675
5.91862e-08
5.37557e-08
0.0472958
-3.43761e-08
0.0472958
-5.74938e-08
0.0472958
3.43765e-08
5.74936e-08
0.0482186
-1.53044e-08
0.0482186
-5.59734e-08
0.0482186
1.53047e-08
5.59732e-08
0.0491341
-1.6183e-09
0.0491341
-5.11024e-08
0.0491341
1.6186e-09
5.11023e-08
0.0500404
7.27214e-09
0.0500404
-4.43297e-08
0.0500404
-7.27188e-09
4.43296e-08
0.0509356
1.20764e-08
0.0509356
-3.66852e-08
0.0509356
-1.20762e-08
3.66851e-08
0.0518174
1.35437e-08
0.0518174
-2.88424e-08
0.0518174
-1.35435e-08
2.88423e-08
0.0526835
1.24065e-08
0.0526835
-2.11807e-08
0.0526835
-1.24064e-08
2.11807e-08
0.0535317
9.35156e-09
0.0535317
-1.38441e-08
0.0535317
-9.35149e-09
1.38441e-08
0.0543592
5.01434e-09
0.0543592
-6.79665e-09
0.0543592
-5.01432e-09
6.79663e-09
0.0551633
0.0551633
0.0551633
)
;

boundaryField
{
    inlet
    {
        type            cyclic;
        value           nonuniform List<scalar> 
100
(
-0.0551633
-0.0543592
-0.0535317
-0.0526835
-0.0518174
-0.0509356
-0.0500404
-0.0491341
-0.0482186
-0.0472958
-0.0463675
-0.0454353
-0.0445009
-0.0435658
-0.0426314
-0.0416992
-0.0407708
-0.0398483
-0.0389331
-0.0380251
-0.0371239
-0.0362304
-0.0353451
-0.0344685
-0.0336013
-0.0327438
-0.0318965
-0.0310597
-0.0302338
-0.0294191
-0.0286158
-0.0278241
-0.0270443
-0.0262766
-0.0255212
-0.024778
-0.0240474
-0.0233293
-0.0226239
-0.0219312
-0.0212511
-0.0205839
-0.0199293
-0.0192876
-0.0186585
-0.0180421
-0.0174383
-0.0168471
-0.0162683
-0.015702
-0.015148
-0.0146062
-0.0140765
-0.0135588
-0.0130529
-0.0125588
-0.0120763
-0.0116053
-0.0111456
-0.0106971
-0.0102597
-0.00983305
-0.00941716
-0.00901183
-0.00861689
-0.00823218
-0.00785753
-0.00749278
-0.00713774
-0.00679225
-0.00645615
-0.00612926
-0.00581141
-0.00550237
-0.00520188
-0.00490982
-0.0046261
-0.00435061
-0.00408321
-0.00382377
-0.00357212
-0.00332811
-0.00309158
-0.00286236
-0.00264031
-0.00242525
-0.00221704
-0.00201552
-0.00182053
-0.00163192
-0.00144954
-0.00127324
-0.00110288
-0.000938317
-0.000779402
-0.000626
-0.000477975
-0.00033519
-0.000197514
-6.48178e-05
)
;
    }
    outlet
    {
        type            cyclic;
        value           nonuniform List<scalar> 
100
(
0.0551633
0.0543592
0.0535317
0.0526835
0.0518174
0.0509356
0.0500404
0.0491341
0.0482186
0.0472958
0.0463675
0.0454353
0.0445009
0.0435658
0.0426314
0.0416992
0.0407708
0.0398483
0.0389331
0.0380251
0.0371239
0.0362304
0.0353451
0.0344685
0.0336013
0.0327438
0.0318965
0.0310597
0.0302338
0.0294191
0.0286158
0.0278241
0.0270443
0.0262766
0.0255212
0.024778
0.0240474
0.0233293
0.0226239
0.0219312
0.0212511
0.0205839
0.0199293
0.0192876
0.0186585
0.0180421
0.0174383
0.0168471
0.0162683
0.015702
0.015148
0.0146062
0.0140765
0.0135588
0.0130529
0.0125588
0.0120763
0.0116053
0.0111456
0.0106971
0.0102597
0.00983305
0.00941716
0.00901183
0.00861689
0.00823218
0.00785753
0.00749278
0.00713774
0.00679225
0.00645615
0.00612926
0.00581141
0.00550237
0.00520188
0.00490982
0.0046261
0.00435061
0.00408321
0.00382377
0.00357212
0.00332811
0.00309158
0.00286236
0.00264031
0.00242525
0.00221704
0.00201552
0.00182053
0.00163192
0.00144954
0.00127324
0.00110288
0.000938317
0.000779402
0.000626
0.000477975
0.00033519
0.000197514
6.48178e-05
)
;
    }
    fixedWalls-bottom
    {
        type            calculated;
        value           uniform 0;
    }
    fixedWalls-top
    {
        type            symmetry;
        value           uniform 0;
    }
    frontAndBack
    {
        type            empty;
        value           nonuniform List<scalar> 0();
    }
}


// ************************************************************************* //
