/*--------------------------------*- C++ -*----------------------------------*\
  =========                 |
  \\      /  F ield         | OpenFOAM: The Open Source CFD Toolbox
   \\    /   O peration     | Website:  https://openfoam.org
    \\  /    A nd           | Version:  10
     \\/     M anipulation  |
\*---------------------------------------------------------------------------*/
FoamFile
{
    format      ascii;
    class       volVectorField;
    location    "5000";
    object      U;
}
// * * * * * * * * * * * * * * * * * * * * * * * * * * * * * * * * * * * * * //

dimensions      [0 1 -1 0 0 0 0];

internalField   nonuniform List<vector> 
400
(
(0.00702443 -1.01132e-12 0)
(0.00702443 -8.20786e-12 0)
(0.00702444 1.71007e-12 0)
(0.00702443 8.20595e-12 0)
(0.0211074 -1.93678e-11 0)
(0.0211074 -9.55509e-11 0)
(0.0211074 2.10568e-11 0)
(0.0211074 9.55442e-11 0)
(0.035322 -5.71635e-11 0)
(0.035322 -2.62676e-10 0)
(0.035322 5.88435e-11 0)
(0.035322 2.62662e-10 0)
(0.049668 -1.13476e-10 0)
(0.0496681 -5.07469e-10 0)
(0.0496681 1.1515e-10 0)
(0.0496681 5.07449e-10 0)
(0.0641454 -1.86998e-10 0)
(0.0641454 -8.21276e-10 0)
(0.0641455 1.88711e-10 0)
(0.0641454 8.2125e-10 0)
(0.0787537 -2.76766e-10 0)
(0.0787537 -1.19632e-09 0)
(0.0787538 2.78528e-10 0)
(0.0787537 1.19629e-09 0)
(0.0934926 -3.81894e-10 0)
(0.0934927 -1.62487e-09 0)
(0.0934927 3.83702e-10 0)
(0.0934926 1.62483e-09 0)
(0.108362 -5.01417e-10 0)
(0.108362 -2.09841e-09 0)
(0.108362 5.03261e-10 0)
(0.108362 2.09837e-09 0)
(0.123361 -6.34255e-10 0)
(0.123361 -2.6075e-09 0)
(0.123361 6.3613e-10 0)
(0.123361 2.60745e-09 0)
(0.138488 -7.79232e-10 0)
(0.138489 -3.14177e-09 0)
(0.138489 7.81131e-10 0)
(0.138488 3.14172e-09 0)
(0.153745 -9.35065e-10 0)
(0.153745 -3.68998e-09 0)
(0.153745 9.36987e-10 0)
(0.153745 3.68992e-09 0)
(0.169129 -1.10037e-09 0)
(0.169129 -4.23995e-09 0)
(0.169129 1.10231e-09 0)
(0.169129 4.23988e-09 0)
(0.18464 -1.27363e-09 0)
(0.18464 -4.77857e-09 0)
(0.18464 1.27558e-09 0)
(0.18464 4.7785e-09 0)
(0.200278 -1.45321e-09 0)
(0.200278 -5.29189e-09 0)
(0.200278 1.45518e-09 0)
(0.200278 5.29181e-09 0)
(0.21604 -1.63732e-09 0)
(0.21604 -5.76511e-09 0)
(0.21604 1.6393e-09 0)
(0.21604 5.76502e-09 0)
(0.231926 -1.82404e-09 0)
(0.231926 -6.18283e-09 0)
(0.231926 1.82602e-09 0)
(0.231926 6.18273e-09 0)
(0.247935 -2.0113e-09 0)
(0.247935 -6.52934e-09 0)
(0.247935 2.01329e-09 0)
(0.247935 6.52924e-09 0)
(0.264066 -2.19693e-09 0)
(0.264066 -6.7893e-09 0)
(0.264066 2.19893e-09 0)
(0.264066 6.7892e-09 0)
(0.280316 -2.37875e-09 0)
(0.280316 -6.94892e-09 0)
(0.280316 2.38075e-09 0)
(0.280316 6.94881e-09 0)
(0.296685 -2.55488e-09 0)
(0.296685 -6.99829e-09 0)
(0.296685 2.55689e-09 0)
(0.296685 6.99817e-09 0)
(0.31317 -2.72427e-09 0)
(0.31317 -6.93548e-09 0)
(0.31317 2.72628e-09 0)
(0.31317 6.93536e-09 0)
(0.329768 -2.88747e-09 0)
(0.329768 -6.77268e-09 0)
(0.329768 2.88947e-09 0)
(0.329768 6.77255e-09 0)
(0.346478 -3.04756e-09 0)
(0.346478 -6.54503e-09 0)
(0.346478 3.04956e-09 0)
(0.346478 6.54489e-09 0)
(0.363294 -3.21375e-09 0)
(0.363294 -6.33208e-09 0)
(0.363294 3.21575e-09 0)
(0.363294 6.33194e-09 0)
(0.380214 -3.41721e-09 0)
(0.380214 -6.32692e-09 0)
(0.380214 3.41921e-09 0)
(0.380214 6.32677e-09 0)
(0.397229 -3.74427e-09 0)
(0.39723 -6.99454e-09 0)
(0.39723 3.74627e-09 0)
(0.39723 6.99439e-09 0)
(0.414333 -4.35187e-09 0)
(0.414333 -9.1039e-09 0)
(0.414333 4.35386e-09 0)
(0.414333 9.10374e-09 0)
(0.431519 -5.05103e-09 0)
(0.431519 -1.19845e-08 0)
(0.431519 5.05303e-09 0)
(0.431519 1.19843e-08 0)
(0.448792 -5.90611e-09 0)
(0.448792 -1.59512e-08 0)
(0.448792 5.9081e-09 0)
(0.448792 1.5951e-08 0)
(0.466153 -6.63529e-09 0)
(0.466154 -1.98447e-08 0)
(0.466154 6.63727e-09 0)
(0.466154 1.98445e-08 0)
(0.483602 -7.2406e-09 0)
(0.483602 -2.36401e-08 0)
(0.483602 7.24257e-09 0)
(0.483602 2.36399e-08 0)
(0.501133 -7.73865e-09 0)
(0.501134 -2.73649e-08 0)
(0.501134 7.74061e-09 0)
(0.501134 2.73647e-08 0)
(0.518745 -8.13201e-09 0)
(0.518745 -3.09806e-08 0)
(0.518745 8.13397e-09 0)
(0.518745 3.09804e-08 0)
(0.536434 -8.41676e-09 0)
(0.536434 -3.44154e-08 0)
(0.536434 8.41871e-09 0)
(0.536434 3.44152e-08 0)
(0.554196 -8.58699e-09 0)
(0.554196 -3.7588e-08 0)
(0.554196 8.58893e-09 0)
(0.554196 3.75878e-08 0)
(0.572028 -8.63842e-09 0)
(0.572029 -4.04226e-08 0)
(0.572029 8.64036e-09 0)
(0.572029 4.04224e-08 0)
(0.589927 -8.56739e-09 0)
(0.589928 -4.28472e-08 0)
(0.589927 8.56931e-09 0)
(0.589928 4.2847e-08 0)
(0.607889 -8.37438e-09 0)
(0.607889 -4.48039e-08 0)
(0.607889 8.37629e-09 0)
(0.607889 4.48037e-08 0)
(0.625908 -8.06256e-09 0)
(0.625909 -4.62446e-08 0)
(0.625909 8.06446e-09 0)
(0.625909 4.62444e-08 0)
(0.643982 -7.63598e-09 0)
(0.643983 -4.7128e-08 0)
(0.643982 7.63787e-09 0)
(0.643983 4.71278e-08 0)
(0.662106 -7.09736e-09 0)
(0.662106 -4.74187e-08 0)
(0.662106 7.09923e-09 0)
(0.662106 4.74185e-08 0)
(0.680274 -6.44805e-09 0)
(0.680274 -4.70867e-08 0)
(0.680273 6.44991e-09 0)
(0.680274 4.70865e-08 0)
(0.698481 -5.68687e-09 0)
(0.698481 -4.61082e-08 0)
(0.698481 5.68872e-09 0)
(0.698481 4.6108e-08 0)
(0.716723 -4.8111e-09 0)
(0.716723 -4.44652e-08 0)
(0.716723 4.81294e-09 0)
(0.716723 4.44649e-08 0)
(0.734994 -3.81586e-09 0)
(0.734994 -4.21469e-08 0)
(0.734993 3.81768e-09 0)
(0.734994 4.21466e-08 0)
(0.753288 -2.69376e-09 0)
(0.753288 -3.91515e-08 0)
(0.753287 2.69556e-09 0)
(0.753288 3.91512e-08 0)
(0.771599 -1.43474e-09 0)
(0.771599 -3.54888e-08 0)
(0.771599 1.43653e-09 0)
(0.771599 3.54885e-08 0)
(0.789921 -2.5804e-11 0)
(0.789921 -3.11785e-08 0)
(0.789921 2.75748e-11 0)
(0.789922 3.11782e-08 0)
(0.808249 1.54826e-09 0)
(0.808249 -2.62524e-08 0)
(0.808248 -1.5465e-09 0)
(0.808249 2.62521e-08 0)
(0.826574 3.30461e-09 0)
(0.826574 -2.07515e-08 0)
(0.826573 -3.30288e-09 0)
(0.826574 2.07512e-08 0)
(0.844891 5.26111e-09 0)
(0.844891 -1.47282e-08 0)
(0.84489 -5.25939e-09 0)
(0.844891 1.47279e-08 0)
(0.863192 7.43536e-09 0)
(0.863191 -8.24736e-09 0)
(0.863191 -7.43366e-09 0)
(0.863192 8.24708e-09 0)
(0.881469 9.84374e-09 0)
(0.881469 -1.38758e-09 0)
(0.881468 -9.84206e-09 0)
(0.881469 1.38729e-09 0)
(0.899716 1.25002e-08 0)
(0.899715 5.75807e-09 0)
(0.899715 -1.24985e-08 0)
(0.899716 -5.75836e-09 0)
(0.917923 1.54143e-08 0)
(0.917923 1.30811e-08 0)
(0.917923 -1.54127e-08 0)
(0.917924 -1.30814e-08 0)
(0.936084 1.85894e-08 0)
(0.936084 2.04569e-08 0)
(0.936083 -1.85878e-08 0)
(0.936084 -2.04572e-08 0)
(0.954189 2.20186e-08 0)
(0.954189 2.77449e-08 0)
(0.954188 -2.2017e-08 0)
(0.954189 -2.77452e-08 0)
(0.97223 2.56809e-08 0)
(0.972229 3.4788e-08 0)
(0.972229 -2.56793e-08 0)
(0.97223 -3.47883e-08 0)
(0.990196 2.9536e-08 0)
(0.990196 4.14145e-08 0)
(0.990196 -2.95345e-08 0)
(0.990197 -4.14148e-08 0)
(1.00808 3.35184e-08 0)
(1.00808 4.74392e-08 0)
(1.00808 -3.35169e-08 0)
(1.00808 -4.74395e-08 0)
(1.02587 3.75313e-08 0)
(1.02587 5.26676e-08 0)
(1.02587 -3.75298e-08 0)
(1.02587 -5.26679e-08 0)
(1.04356 4.14405e-08 0)
(1.04356 5.69004e-08 0)
(1.04356 -4.1439e-08 0)
(1.04356 -5.69007e-08 0)
(1.06114 4.50677e-08 0)
(1.06114 5.99412e-08 0)
(1.06114 -4.50663e-08 0)
(1.06114 -5.99416e-08 0)
(1.07859 4.81849e-08 0)
(1.07859 6.16052e-08 0)
(1.07859 -4.81834e-08 0)
(1.07859 -6.16055e-08 0)
(1.09591 5.05076e-08 0)
(1.09591 6.17263e-08 0)
(1.09591 -5.05062e-08 0)
(1.09591 -6.17266e-08 0)
(1.11308 5.16932e-08 0)
(1.11308 6.01703e-08 0)
(1.11308 -5.16918e-08 0)
(1.11308 -6.01706e-08 0)
(1.13009 5.13408e-08 0)
(1.13009 5.6848e-08 0)
(1.13009 -5.13394e-08 0)
(1.13009 -5.68483e-08 0)
(1.14693 4.89976e-08 0)
(1.14693 5.17362e-08 0)
(1.14693 -4.89963e-08 0)
(1.14693 -5.17365e-08 0)
(1.16359 4.41712e-08 0)
(1.16359 4.49036e-08 0)
(1.16359 -4.41699e-08 0)
(1.16359 -4.49039e-08 0)
(1.18006 3.63485e-08 0)
(1.18006 3.65408e-08 0)
(1.18006 -3.63472e-08 0)
(1.18006 -3.65411e-08 0)
(1.19632 2.5028e-08 0)
(1.19632 2.69932e-08 0)
(1.19632 -2.50267e-08 0)
(1.19632 -2.69935e-08 0)
(1.21235 9.76768e-09 0)
(1.21235 1.67951e-08 0)
(1.21235 -9.76648e-09 0)
(1.21235 -1.67954e-08 0)
(1.22815 -9.73006e-09 0)
(1.22815 6.69445e-09 0)
(1.22815 9.73123e-09 0)
(1.22815 -6.69478e-09 0)
(1.2437 -3.345e-08 0)
(1.2437 -2.34511e-09 0)
(1.2437 3.34511e-08 0)
(1.2437 2.34478e-09 0)
(1.25899 -6.08404e-08 0)
(1.25899 -9.16557e-09 0)
(1.25899 6.08415e-08 0)
(1.25899 9.16524e-09 0)
(1.27399 -9.11756e-08 0)
(1.27399 -1.23374e-08 0)
(1.27399 9.11766e-08 0)
(1.27399 1.2337e-08 0)
(1.2887 -1.23425e-07 0)
(1.2887 -1.02759e-08 0)
(1.2887 1.23426e-07 0)
(1.2887 1.02756e-08 0)
(1.3031 -1.56661e-07 0)
(1.3031 -1.25498e-09 0)
(1.3031 1.56662e-07 0)
(1.30309 1.25466e-09 0)
(1.31716 -1.89838e-07 0)
(1.31716 1.67011e-08 0)
(1.31716 1.89839e-07 0)
(1.31716 -1.67014e-08 0)
(1.33088 -2.21593e-07 0)
(1.33088 4.72492e-08 0)
(1.33088 2.21594e-07 0)
(1.33088 -4.72495e-08 0)
(1.34423 -2.50074e-07 0)
(1.34423 9.77638e-08 0)
(1.34423 2.50075e-07 0)
(1.34423 -9.77641e-08 0)
(1.35719 -2.72373e-07 0)
(1.35719 1.7191e-07 0)
(1.35719 2.72373e-07 0)
(1.35719 -1.71911e-07 0)
(1.36978 -2.82583e-07 0)
(1.36978 2.01424e-07 0)
(1.36978 2.82585e-07 0)
(1.36978 -2.01424e-07 0)
(1.382 -2.77288e-07 0)
(1.382 2.13129e-07 0)
(1.382 2.77289e-07 0)
(1.382 -2.1313e-07 0)
(1.39381 -2.55584e-07 0)
(1.39381 1.59166e-07 0)
(1.39382 2.55584e-07 0)
(1.39382 -1.59167e-07 0)
(1.40516 -2.22528e-07 0)
(1.40516 9.17147e-08 0)
(1.40516 2.22528e-07 0)
(1.40516 -9.17149e-08 0)
(1.41599 -1.83719e-07 0)
(1.41599 3.46879e-08 0)
(1.41599 1.83719e-07 0)
(1.41599 -3.46881e-08 0)
(1.42627 -1.43855e-07 0)
(1.42627 -7.08511e-09 0)
(1.42627 1.43855e-07 0)
(1.42627 7.08485e-09 0)
(1.43597 -1.06215e-07 0)
(1.43597 -3.45046e-08 0)
(1.43597 1.06215e-07 0)
(1.43597 3.45043e-08 0)
(1.44505 -7.29782e-08 0)
(1.44505 -5.0288e-08 0)
(1.44505 7.29787e-08 0)
(1.44506 5.02877e-08 0)
(1.45349 -4.52613e-08 0)
(1.45349 -5.71909e-08 0)
(1.45349 4.52617e-08 0)
(1.45349 5.71907e-08 0)
(1.46124 -2.33762e-08 0)
(1.46124 -5.77653e-08 0)
(1.46124 2.33766e-08 0)
(1.46124 5.77651e-08 0)
(1.46828 -7.13822e-09 0)
(1.46828 -5.41452e-08 0)
(1.46828 7.13855e-09 0)
(1.46828 5.4145e-08 0)
(1.47457 3.96462e-09 0)
(1.47457 -4.80088e-08 0)
(1.47457 -3.96434e-09 0)
(1.47457 4.80087e-08 0)
(1.48008 1.06122e-08 0)
(1.48008 -4.05878e-08 0)
(1.48008 -1.06119e-08 0)
(1.48008 4.05876e-08 0)
(1.48476 1.35505e-08 0)
(1.48476 -3.27164e-08 0)
(1.48476 -1.35503e-08 0)
(1.48476 3.27163e-08 0)
(1.48859 1.35299e-08 0)
(1.48859 -2.49019e-08 0)
(1.48859 -1.35297e-08 0)
(1.48859 2.49018e-08 0)
(1.49152 1.12641e-08 0)
(1.49152 -1.73899e-08 0)
(1.49152 -1.1264e-08 0)
(1.49152 1.73899e-08 0)
(1.49352 7.41238e-09 0)
(1.49352 -1.02387e-08 0)
(1.49352 -7.41234e-09 0)
(1.49352 1.02387e-08 0)
(1.49454 2.57455e-09 0)
(1.49454 -3.38256e-09 0)
(1.49454 -2.57454e-09 0)
(1.49454 3.38255e-09 0)
)
;

boundaryField
{
    inlet
    {
        type            cyclic;
    }
    outlet
    {
        type            cyclic;
    }
    fixedWalls-bottom
    {
        type            noSlip;
    }
    fixedWalls-top
    {
        type            symmetry;
    }
    frontAndBack
    {
        type            empty;
    }
}


// ************************************************************************* //
