/*--------------------------------*- C++ -*----------------------------------*\
  =========                 |
  \\      /  F ield         | OpenFOAM: The Open Source CFD Toolbox
   \\    /   O peration     | Website:  https://openfoam.org
    \\  /    A nd           | Version:  10
     \\/     M anipulation  |
\*---------------------------------------------------------------------------*/
FoamFile
{
    format      ascii;
    class       volScalarField;
    location    "519";
    object      k;
}
// * * * * * * * * * * * * * * * * * * * * * * * * * * * * * * * * * * * * * //

dimensions      [0 2 -2 0 0 0 0];

internalField   nonuniform List<scalar> 
200
(
1.1219e-05
1.12182e-05
1.12171e-05
1.12171e-05
0.000334888
0.000334865
0.000334833
0.000334833
0.00203983
0.00203969
0.00203952
0.00203952
0.00439182
0.00439161
0.00439134
0.00439135
0.00594817
0.00594803
0.00594776
0.00594777
0.00689038
0.00689029
0.00689005
0.00689008
0.00745301
0.00745295
0.00745277
0.00745283
0.00778893
0.00778891
0.00778877
0.00778888
0.00798594
0.00798593
0.00798584
0.00798599
0.00809407
0.00809406
0.00809401
0.00809418
0.00814256
0.00814254
0.00814252
0.00814269
0.0081491
0.00814907
0.00814907
0.00814923
0.00812481
0.00812478
0.0081248
0.00812493
0.00807692
0.0080769
0.00807693
0.00807702
0.00801028
0.00801028
0.00801031
0.00801035
0.00792823
0.00792824
0.00792829
0.00792827
0.0078331
0.00783313
0.00783318
0.0078331
0.00772655
0.00772661
0.00772665
0.00772652
0.00760979
0.00760987
0.0076099
0.00760973
0.0074837
0.0074838
0.00748383
0.00748361
0.007349
0.00734911
0.00734913
0.00734888
0.00720633
0.00720646
0.00720647
0.00720619
0.00705641
0.00705654
0.00705655
0.00705624
0.00690012
0.00690025
0.00690026
0.00689994
0.00673858
0.0067387
0.0067387
0.00673838
0.00657308
0.00657319
0.00657317
0.00657289
0.00640482
0.0064049
0.00640489
0.00640466
0.00623435
0.00623439
0.0062344
0.00623416
0.00606164
0.00606165
0.00606168
0.00606139
0.00588682
0.00588685
0.00588687
0.00588655
0.0057103
0.00571036
0.00571037
0.00571003
0.00553252
0.0055326
0.00553261
0.00553226
0.00535399
0.00535408
0.0053541
0.00535374
0.00517529
0.00517537
0.0051754
0.00517505
0.00499704
0.00499711
0.00499715
0.00499681
0.00481998
0.00482002
0.00482007
0.00481975
0.0046449
0.00464492
0.00464497
0.00464468
0.0044727
0.0044727
0.00447277
0.00447249
0.00430442
0.00430439
0.00430446
0.00430421
0.00414117
0.00414113
0.0041412
0.00414097
0.00398422
0.00398415
0.00398423
0.00398403
0.00383493
0.00383486
0.0038349
0.00383477
0.00369483
0.00369476
0.00369476
0.00369469
0.00356555
0.00356551
0.00356547
0.00356541
0.00344882
0.00344875
0.00344877
0.0034487
0.00334649
0.00334644
0.00334649
0.00334639
0.00326047
0.00326049
0.00326054
0.00326041
0.00319281
0.00319292
0.00319288
0.00319279
0.00314558
0.00314569
0.00314566
0.00314557
0.00312086
0.00312091
0.00312101
0.00312086
)
;

boundaryField
{
    inlet
    {
        type            cyclic;
    }
    outlet
    {
        type            cyclic;
    }
    fixedWalls-bottom
    {
        type            kqRWallFunction;
        value           nonuniform List<scalar> 4(1.1219e-05 1.12182e-05 1.12171e-05 1.12171e-05);
    }
    fixedWalls-top
    {
        type            symmetry;
    }
    frontAndBack
    {
        type            empty;
    }
}


// ************************************************************************* //
