/*--------------------------------*- C++ -*----------------------------------*\
  =========                 |
  \\      /  F ield         | OpenFOAM: The Open Source CFD Toolbox
   \\    /   O peration     | Website:  https://openfoam.org
    \\  /    A nd           | Version:  10
     \\/     M anipulation  |
\*---------------------------------------------------------------------------*/
FoamFile
{
    format      ascii;
    class       volScalarField;
    location    "519";
    object      nut;
}
// * * * * * * * * * * * * * * * * * * * * * * * * * * * * * * * * * * * * * //

dimensions      [0 2 -1 0 0 0 0];

internalField   nonuniform List<scalar> 
200
(
1.59211e-08
1.592e-08
1.59185e-08
1.59185e-08
2.64042e-06
2.64023e-06
2.63998e-06
2.63997e-06
3.90543e-05
3.90505e-05
3.90469e-05
3.9047e-05
0.000140796
0.000140781
0.000140771
0.000140771
0.000269086
0.000269081
0.000269066
0.000269064
0.000419769
0.000419768
0.000419752
0.00041975
0.000586745
0.000586744
0.00058673
0.000586734
0.00076503
0.000765028
0.000765017
0.000765033
0.000950743
0.000950739
0.000950729
0.000950758
0.00114118
0.00114117
0.00114116
0.0011412
0.00133454
0.00133453
0.00133452
0.00133457
0.00152964
0.00152963
0.00152962
0.00152967
0.00172571
0.00172569
0.00172569
0.00172572
0.00192219
0.00192217
0.00192217
0.0019222
0.00211868
0.00211867
0.00211867
0.00211869
0.00231483
0.00231483
0.00231485
0.00231484
0.00251035
0.00251035
0.00251037
0.00251034
0.00270496
0.00270498
0.002705
0.00270495
0.00289855
0.00289858
0.00289861
0.00289852
0.00309128
0.00309134
0.00309137
0.00309125
0.0032839
0.00328398
0.00328401
0.00328383
0.00347796
0.00347806
0.00347806
0.00347785
0.00367612
0.00367619
0.00367611
0.00367595
0.00388188
0.00388185
0.00388168
0.00388175
0.00409859
0.00409843
0.00409824
0.00409878
0.00432689
0.00432669
0.00432665
0.0043276
0.00455978
0.00455955
0.00455984
0.00456009
0.0047747
0.00477345
0.00477394
0.00477015
0.00496517
0.00496413
0.00496411
0.00496066
0.00514929
0.00514975
0.00514809
0.00514578
0.00532827
0.00532881
0.00532694
0.00532498
0.00550133
0.00550188
0.00550002
0.00549819
0.00566819
0.00566874
0.00566698
0.00566519
0.00582856
0.0058291
0.00582748
0.0058257
0.00598213
0.00598263
0.00598118
0.00597946
0.00612863
0.00612905
0.00612781
0.00612619
0.00626781
0.00626815
0.00626716
0.00626566
0.00639952
0.00639976
0.00639909
0.00639771
0.00652365
0.00652379
0.00652348
0.00652226
0.00664018
0.00664021
0.00664026
0.00663926
0.00674909
0.00674913
0.00674929
0.00674875
0.00685027
0.00685052
0.00685086
0.00685062
0.00694398
0.00694476
0.00694462
0.00694491
0.00703047
0.00703089
0.00703078
0.00703139
0.00710834
0.0071089
0.00710889
0.0071097
0.00717749
0.00717816
0.00717833
0.00717912
0.00723685
0.00723751
0.0072379
0.0072386
0.00728473
0.00728549
0.00728585
0.00728666
0.00731925
0.00731975
0.00732054
0.00732137
0.00733808
0.00733766
0.00733985
0.00734055
)
;

boundaryField
{
    inlet
    {
        type            cyclic;
    }
    outlet
    {
        type            cyclic;
    }
    fixedWalls-bottom
    {
        type            nutkWallFunction;
        Cmu             0.09;
        kappa           0.41;
        E               9.8;
        value           uniform 0;
    }
    fixedWalls-top
    {
        type            symmetry;
    }
    frontAndBack
    {
        type            empty;
    }
}


// ************************************************************************* //
