/*--------------------------------*- C++ -*----------------------------------*\
  =========                 |
  \\      /  F ield         | OpenFOAM: The Open Source CFD Toolbox
   \\    /   O peration     | Website:  https://openfoam.org
    \\  /    A nd           | Version:  10
     \\/     M anipulation  |
\*---------------------------------------------------------------------------*/
FoamFile
{
    format      ascii;
    class       volScalarField;
    location    "519";
    object      omega;
}
// * * * * * * * * * * * * * * * * * * * * * * * * * * * * * * * * * * * * * //

dimensions      [0 0 -1 0 0 0 0];

internalField   nonuniform List<scalar> 
200
(
704.661
704.661
704.661
704.661
126.831
126.832
126.832
126.832
52.2306
52.2321
52.2325
52.2324
31.1929
31.1946
31.1949
31.195
21.4288
21.4301
21.4304
21.4304
15.8572
15.8579
15.8581
15.858
12.3335
12.334
12.334
12.3338
9.95161
9.95167
9.95176
9.95123
8.25784
8.2576
8.25772
8.25701
7.00321
7.00288
7.00299
7.0022
6.04199
6.04169
6.04175
6.041
5.28445
5.28438
5.2843
5.2837
4.67345
4.67347
4.67324
4.67284
4.1706
4.17057
4.17045
4.17016
3.74967
3.74962
3.74947
3.74945
3.39217
3.3921
3.392
3.39213
3.08468
3.08462
3.08456
3.08485
2.81731
2.81728
2.81728
2.81773
2.58262
2.5826
2.58269
2.58331
2.37485
2.37509
2.37494
2.37588
2.18972
2.18993
2.18991
2.19087
2.02368
2.02369
2.02391
2.02482
1.87361
1.87396
1.87389
1.87498
1.73769
1.73802
1.73799
1.73904
1.61405
1.61437
1.61434
1.61536
1.50143
1.50175
1.50168
1.50269
1.39891
1.39924
1.39912
1.40014
1.30571
1.30605
1.30592
1.30691
1.22083
1.22109
1.2211
1.22189
1.14323
1.14313
1.14351
1.14396
1.0717
1.0716
1.07198
1.07231
1.00567
1.00558
1.00593
1.0062
0.944568
0.944492
0.944788
0.945025
0.887918
0.887852
0.888103
0.888313
0.835328
0.835271
0.83548
0.835663
0.786469
0.786422
0.786589
0.786746
0.741072
0.741035
0.74116
0.741291
0.698913
0.698886
0.698969
0.699076
0.659818
0.6598
0.659841
0.659927
0.623654
0.623644
0.623651
0.623709
0.590334
0.590321
0.590318
0.590336
0.559822
0.559791
0.559769
0.559769
0.532091
0.532022
0.532032
0.531999
0.507156
0.507121
0.507123
0.507071
0.48518
0.485132
0.485134
0.485069
0.466248
0.466197
0.466193
0.466127
0.450537
0.450499
0.450482
0.450421
0.438289
0.438257
0.43823
0.43817
0.429767
0.429754
0.429703
0.429642
0.425297
0.425328
0.425214
0.425153
)
;

boundaryField
{
    inlet
    {
        type            cyclic;
    }
    outlet
    {
        type            cyclic;
    }
    fixedWalls-bottom
    {
        beta1           0.075;
        blended         0;
        type            omegaWallFunction;
        value           nonuniform List<scalar> 4(704.661 704.661 704.661 704.661);
    }
    fixedWalls-top
    {
        type            symmetry;
    }
    frontAndBack
    {
        type            empty;
    }
}


// ************************************************************************* //
