/*--------------------------------*- C++ -*----------------------------------*\
  =========                 |
  \\      /  F ield         | OpenFOAM: The Open Source CFD Toolbox
   \\    /   O peration     | Website:  https://openfoam.org
    \\  /    A nd           | Version:  10
     \\/     M anipulation  |
\*---------------------------------------------------------------------------*/
FoamFile
{
    format      ascii;
    class       volScalarField;
    location    "519";
    object      p;
}
// * * * * * * * * * * * * * * * * * * * * * * * * * * * * * * * * * * * * * //

dimensions      [0 2 -2 0 0 0 0];

internalField   nonuniform List<scalar> 
200
(
1.21663e-11
3.67688e-07
1.30001e-07
-2.37235e-07
-4.72578e-10
3.68057e-07
1.30516e-07
-2.37608e-07
-8.4276e-10
3.67427e-07
1.30895e-07
-2.36982e-07
-4.67682e-10
3.64294e-07
1.30528e-07
-2.33856e-07
5.77409e-10
3.60107e-07
1.29488e-07
-2.29677e-07
1.58416e-09
3.56891e-07
1.28486e-07
-2.2647e-07
1.7492e-09
3.544e-07
1.28328e-07
-2.23989e-07
6.05038e-10
3.52143e-07
1.2948e-07
-2.21741e-07
-1.84042e-09
3.49811e-07
1.31936e-07
-2.1942e-07
-5.25593e-09
3.47182e-07
1.35361e-07
-2.16801e-07
-9.22109e-09
3.4409e-07
1.39338e-07
-2.13722e-07
-1.34239e-08
3.40494e-07
1.43551e-07
-2.10137e-07
-1.76695e-08
3.36479e-07
1.47811e-07
-2.06135e-07
-2.18359e-08
3.32226e-07
1.5199e-07
-2.01893e-07
-2.58267e-08
3.27891e-07
1.55996e-07
-1.97571e-07
-2.95933e-08
3.23571e-07
1.59779e-07
-1.93264e-07
-3.31184e-08
3.19249e-07
1.63321e-07
-1.88953e-07
-3.63942e-08
3.149e-07
1.66616e-07
-1.84618e-07
-3.94323e-08
3.10589e-07
1.69672e-07
-1.80317e-07
-4.21541e-08
3.06487e-07
1.72415e-07
-1.7623e-07
-4.42193e-08
3.02664e-07
1.74498e-07
-1.72418e-07
-4.50873e-08
2.98635e-07
1.75388e-07
-1.68403e-07
-4.49521e-08
2.92971e-07
1.75271e-07
-1.62749e-07
-4.6402e-08
2.83801e-07
1.76742e-07
-1.53594e-07
-5.54194e-08
2.70908e-07
1.85776e-07
-1.40711e-07
-7.66666e-08
2.57615e-07
2.07041e-07
-1.27431e-07
-9.85996e-08
2.47257e-07
2.28987e-07
-1.17091e-07
-8.61667e-08
2.33939e-07
2.16566e-07
-1.03794e-07
-4.03524e-08
2.12739e-07
1.70764e-07
-8.26113e-08
1.06873e-08
1.87529e-07
1.1974e-07
-5.74121e-08
5.98549e-08
1.60903e-07
7.05863e-08
-3.07958e-08
1.04319e-07
1.34285e-07
2.61362e-08
-4.18866e-09
1.44681e-07
1.09213e-07
-1.42164e-08
2.08717e-08
1.81251e-07
8.62467e-08
-5.07754e-08
4.38256e-08
2.13696e-07
6.53667e-08
-8.32135e-08
6.46927e-08
2.41421e-07
4.64825e-08
-1.10932e-07
8.35625e-08
2.63899e-07
2.97037e-08
-1.33404e-07
1.00326e-07
2.80819e-07
1.5418e-08
-1.50322e-07
1.14598e-07
2.92005e-07
3.98846e-09
-1.61503e-07
1.26011e-07
2.9734e-07
-4.78529e-09
-1.6684e-07
1.34775e-07
2.97301e-07
-1.15137e-08
-1.66797e-07
1.41488e-07
2.93226e-07
-1.56106e-08
-1.62726e-07
1.45579e-07
2.87553e-07
-1.762e-08
-1.57049e-07
1.47577e-07
2.81154e-07
-2.02686e-08
-1.50656e-07
1.50224e-07
2.73776e-07
-2.34295e-08
-1.43279e-07
1.53379e-07
2.66339e-07
-2.55209e-08
-1.35847e-07
1.5547e-07
2.59623e-07
-2.67404e-08
-1.29134e-07
1.56688e-07
2.53939e-07
-2.7375e-08
-1.23454e-07
1.57324e-07
2.4936e-07
-2.74809e-08
-1.18878e-07
1.57432e-07
2.46094e-07
-2.73674e-08
-1.15612e-07
1.57321e-07
)
;

boundaryField
{
    inlet
    {
        type            cyclic;
    }
    outlet
    {
        type            cyclic;
    }
    fixedWalls-bottom
    {
        type            zeroGradient;
    }
    fixedWalls-top
    {
        type            symmetry;
    }
    frontAndBack
    {
        type            empty;
    }
}


// ************************************************************************* //
