/*--------------------------------*- C++ -*----------------------------------*\
  =========                 |
  \\      /  F ield         | OpenFOAM: The Open Source CFD Toolbox
   \\    /   O peration     | Website:  https://openfoam.org
    \\  /    A nd           | Version:  10
     \\/     M anipulation  |
\*---------------------------------------------------------------------------*/
FoamFile
{
    format      ascii;
    class       surfaceScalarField;
    location    "519";
    object      phi;
}
// * * * * * * * * * * * * * * * * * * * * * * * * * * * * * * * * * * * * * //

dimensions      [0 3 -1 0 0 0 0];

internalField   nonuniform List<scalar> 
346
(
0.00146339
-1.02413e-08
0.00146338
6.11188e-09
0.00146338
9.06581e-09
-6.05806e-09
0.00451015
-3.84203e-08
0.00451013
3.06578e-08
0.0045101
3.767e-08
-3.05438e-08
0.0074962
-7.28984e-08
0.00749617
6.18498e-08
0.00749614
7.22964e-08
-6.16851e-08
0.00996042
-9.16914e-08
0.00996041
7.12774e-08
0.0099604
9.12327e-08
-7.10904e-08
0.0119098
-9.25241e-08
0.0119098
7.0485e-08
0.0119098
9.2131e-08
-7.02759e-08
0.0135354
-8.29394e-08
0.0135354
7.36262e-08
0.0135354
8.25845e-08
-7.34107e-08
0.0149578
-7.06895e-08
0.0149578
8.15432e-08
0.0149578
7.03705e-08
-8.13169e-08
0.0162518
-6.07066e-08
0.0162518
9.20161e-08
0.0162518
6.03934e-08
-9.1789e-08
0.0174645
-5.49905e-08
0.0174645
1.02849e-07
0.0174645
5.47008e-08
-1.02617e-07
0.0186264
-5.34925e-08
0.0186264
1.12362e-07
0.0186264
5.31998e-08
-1.12131e-07
0.0197578
-5.49827e-08
0.0197578
1.19502e-07
0.0197578
5.47075e-08
-1.19271e-07
0.020873
-5.81943e-08
0.020873
1.23809e-07
0.020873
5.79147e-08
-1.23579e-07
0.021982
-6.20108e-08
0.021982
1.25343e-07
0.021982
6.17455e-08
-1.25116e-07
0.0230926
-6.58001e-08
0.0230926
1.24592e-07
0.0230926
6.55315e-08
-1.24367e-07
0.0242105
-6.91362e-08
0.0242105
1.22204e-07
0.0242105
6.88805e-08
-1.21983e-07
0.0253403
-7.21196e-08
0.0253403
1.18965e-07
0.0253403
7.18622e-08
-1.18747e-07
0.0264859
-7.48934e-08
0.0264859
1.15394e-07
0.0264859
7.4648e-08
-1.1518e-07
0.0276505
-7.76951e-08
0.0276505
1.11967e-07
0.0276505
7.74496e-08
-1.11756e-07
0.0288367
-8.05652e-08
0.0288367
1.09192e-07
0.0288367
8.03314e-08
-1.08988e-07
0.0300469
-8.34008e-08
0.0300469
1.08078e-07
0.0300469
8.31686e-08
-1.07878e-07
0.0312832
-8.51468e-08
0.0312832
1.0966e-07
0.0312832
8.49254e-08
-1.09466e-07
0.0325471
-8.35442e-08
0.0325471
1.14013e-07
0.0325471
8.3326e-08
-1.13823e-07
0.0338401
-7.64116e-08
0.0338401
1.17945e-07
0.0338401
7.62039e-08
-1.17761e-07
0.0351632
-6.6192e-08
0.0351632
1.13869e-07
0.0351632
6.59897e-08
-1.13692e-07
0.036517
-6.60972e-08
0.0365171
9.26592e-08
0.0365171
6.59031e-08
-9.24864e-08
0.0379022
-1.00952e-07
0.0379022
5.27583e-08
0.0379022
1.00765e-07
-5.25935e-08
0.0393194
-1.86911e-07
0.0393194
7.45353e-09
0.0393194
1.86731e-07
-7.29153e-09
0.0407706
-2.73667e-07
0.0407706
-3.36879e-08
0.0407705
2.73496e-07
3.38408e-08
0.0422583
-3.19032e-07
0.0422583
-6.82329e-08
0.0422582
3.18864e-07
6.8385e-08
0.0437843
-3.31723e-07
0.0437843
-9.11383e-08
0.0437843
3.31567e-07
9.12802e-08
0.0453499
-3.19756e-07
0.0453499
-1.01596e-07
0.0453499
3.196e-07
1.01739e-07
0.0469561
-2.94804e-07
0.0469561
-1.01702e-07
0.0469562
2.9466e-07
1.01834e-07
0.0486041
-2.63897e-07
0.0486041
-9.3196e-08
0.0486041
2.63752e-07
9.33286e-08
0.0502946
-2.30831e-07
0.0502946
-7.81242e-08
0.0502947
2.307e-07
7.82458e-08
0.0520287
-1.97508e-07
0.0520287
-5.87016e-08
0.0520287
1.97375e-07
5.88245e-08
0.0538069
-1.64819e-07
0.0538069
-3.72974e-08
0.0538069
1.64696e-07
3.7411e-08
0.05563
-1.33404e-07
0.05563
-1.5949e-08
0.05563
1.33284e-07
1.60604e-08
0.0574984
-1.0371e-07
0.0574984
3.78624e-09
0.0574984
1.03598e-07
-3.68141e-09
0.0594124
-7.66491e-08
0.0594124
2.11676e-08
0.0594125
7.65453e-08
-2.10707e-08
0.0613723
-5.35314e-08
0.0613723
3.53961e-08
0.0613723
5.34322e-08
-3.53029e-08
0.063378
-3.56155e-08
0.0633779
4.46891e-08
0.063378
3.55317e-08
-4.46107e-08
0.0654291
-2.43807e-08
0.0654291
5.02846e-08
0.0654291
2.43004e-08
-5.02088e-08
0.0675252
-1.79393e-08
0.0675252
5.457e-08
0.0675252
1.78788e-08
-5.45133e-08
0.0696654
-1.35993e-08
0.0696654
5.51394e-08
0.0696654
1.35447e-08
-5.50878e-08
0.0718486
-1.06457e-08
0.0718486
5.07282e-08
0.0718486
1.06074e-08
-5.06922e-08
0.0740733
-8.18747e-09
0.0740733
4.32761e-08
0.0740733
8.15837e-09
-4.32486e-08
0.0763375
-5.52045e-09
0.0763375
3.38492e-08
0.0763375
5.50345e-09
-3.38331e-08
0.0786387
-2.61123e-09
0.0786387
2.32692e-08
0.0786387
2.60564e-09
-2.32639e-08
0.0809739
-4.18067e-10
0.0809739
1.18056e-08
0.0809739
4.23989e-10
-1.18115e-08
0.0833394
0.0833394
0.0833395
)
;

boundaryField
{
    inlet
    {
        type            cyclic;
        value           nonuniform List<scalar> 
50
(
-0.0833394
-0.0809739
-0.0786387
-0.0763375
-0.0740733
-0.0718486
-0.0696654
-0.0675252
-0.0654291
-0.063378
-0.0613723
-0.0594125
-0.0574984
-0.05563
-0.053807
-0.0520287
-0.0502947
-0.0486041
-0.0469562
-0.0453499
-0.0437843
-0.0422582
-0.0407705
-0.0393193
-0.0379021
-0.036517
-0.0351632
-0.0338401
-0.0325471
-0.0312832
-0.0300469
-0.0288367
-0.0276505
-0.0264859
-0.0253403
-0.0242105
-0.0230926
-0.021982
-0.020873
-0.0197578
-0.0186264
-0.0174645
-0.0162518
-0.0149578
-0.0135355
-0.0119098
-0.0099604
-0.00749617
-0.00451012
-0.00146338
)
;
    }
    outlet
    {
        type            cyclic;
        value           nonuniform List<scalar> 
50
(
0.0833394
0.0809739
0.0786387
0.0763375
0.0740733
0.0718486
0.0696654
0.0675252
0.0654291
0.063378
0.0613723
0.0594125
0.0574984
0.05563
0.053807
0.0520287
0.0502947
0.0486041
0.0469562
0.0453499
0.0437843
0.0422582
0.0407705
0.0393193
0.0379021
0.036517
0.0351632
0.0338401
0.0325471
0.0312832
0.0300469
0.0288367
0.0276505
0.0264859
0.0253403
0.0242105
0.0230926
0.021982
0.020873
0.0197578
0.0186264
0.0174645
0.0162518
0.0149578
0.0135355
0.0119098
0.0099604
0.00749617
0.00451012
0.00146338
)
;
    }
    fixedWalls-bottom
    {
        type            calculated;
        value           uniform 0;
    }
    fixedWalls-top
    {
        type            symmetry;
        value           uniform 0;
    }
    frontAndBack
    {
        type            empty;
        value           nonuniform List<scalar> 0();
    }
}


// ************************************************************************* //
