/*--------------------------------*- C++ -*----------------------------------*\
  =========                 |
  \\      /  F ield         | OpenFOAM: The Open Source CFD Toolbox
   \\    /   O peration     | Website:  https://openfoam.org
    \\  /    A nd           | Version:  10
     \\/     M anipulation  |
\*---------------------------------------------------------------------------*/
FoamFile
{
    format      ascii;
    class       volSymmTensorField;
    location    "519";
    object      R;
}
// * * * * * * * * * * * * * * * * * * * * * * * * * * * * * * * * * * * * * //

dimensions      [0 2 -2 0 0 0 0];

internalField   nonuniform List<symmTensor> 
200
(
(7.47934e-06 -2.72298e-07 -0 7.47934e-06 -0 7.47934e-06)
(7.47882e-06 -2.72278e-07 -0 7.47882e-06 -0 7.47882e-06)
(7.4781e-06 -2.72249e-07 -0 7.4781e-06 -0 7.4781e-06)
(7.4781e-06 -2.72248e-07 -0 7.4781e-06 -0 7.4781e-06)
(0.000223259 -4.25166e-05 -0 0.000223259 -0 0.000223259)
(0.000223243 -4.25134e-05 -0 0.000223243 -0 0.000223243)
(0.000223222 -4.25091e-05 -0 0.000223222 -0 0.000223222)
(0.000223222 -4.2509e-05 -0 0.000223222 -0 0.000223222)
(0.00135988 -0.000519022 -0 0.00135988 -0 0.00135988)
(0.00135979 -0.000518973 -0 0.00135979 -0 0.00135979)
(0.00135968 -0.000518928 -0 0.00135968 -0 0.00135968)
(0.00135968 -0.00051893 -0 0.00135968 -0 0.00135968)
(0.00292788 -0.0013562 -0 0.00292788 -0 0.00292788)
(0.00292774 -0.00135606 -0 0.00292774 -0 0.00292774)
(0.00292756 -0.00135598 -0 0.00292756 -0 0.00292756)
(0.00292757 -0.00135599 -0 0.00292757 -0 0.00292757)
(0.00396545 -0.00184403 -0 0.00396545 -0 0.00396545)
(0.00396535 -0.00184399 -0 0.00396535 -0 0.00396535)
(0.00396517 -0.00184391 -0 0.00396517 -0 0.00396517)
(0.00396518 -0.00184391 -0 0.00396518 -0 0.00396518)
(0.00459359 -0.00213643 -0 0.00459359 -0 0.00459359)
(0.00459353 -0.0021364 -0 0.00459353 -0 0.00459353)
(0.00459337 -0.00213633 -0 0.00459337 -0 0.00459337)
(0.00459339 -0.00213634 -0 0.00459339 -0 0.00459339)
(0.00496867 -0.00231048 -0 0.00496867 -0 0.00496867)
(0.00496863 -0.00231046 -0 0.00496863 -0 0.00496863)
(0.00496851 -0.0023104 -0 0.00496851 -0 0.00496851)
(0.00496855 -0.00231042 -0 0.00496855 -0 0.00496855)
(0.00519262 -0.00241458 -0 0.00519262 -0 0.00519262)
(0.00519261 -0.00241457 -0 0.0051926 -0 0.0051926)
(0.00519251 -0.00241453 -0 0.00519252 -0 0.00519252)
(0.00519259 -0.00241456 -0 0.00519259 -0 0.00519259)
(0.00532396 -0.00247564 -0 0.00532396 -0 0.00532396)
(0.00532396 -0.00247564 -0 0.00532395 -0 0.00532396)
(0.0053239 -0.00247561 -0 0.0053239 -0 0.0053239)
(0.00532399 -0.00247566 -0 0.005324 -0 0.00532399)
(0.00539605 -0.00250916 -0 0.00539604 -0 0.00539605)
(0.00539604 -0.00250916 -0 0.00539604 -0 0.00539604)
(0.00539601 -0.00250914 -0 0.00539601 -0 0.00539601)
(0.00539612 -0.0025092 -0 0.00539612 -0 0.00539612)
(0.00542837 -0.00252419 -0 0.00542837 -0 0.00542837)
(0.00542836 -0.00252419 -0 0.00542836 -0 0.00542836)
(0.00542834 -0.00252418 -0 0.00542834 -0 0.00542834)
(0.00542846 -0.00252423 -0 0.00542846 -0 0.00542846)
(0.00543273 -0.00252622 -0 0.00543274 -0 0.00543273)
(0.00543272 -0.00252621 -0 0.00543271 -0 0.00543271)
(0.00543272 -0.00252621 -0 0.00543271 -0 0.00543272)
(0.00543282 -0.00252626 -0 0.00543282 -0 0.00543282)
(0.00541654 -0.00251869 -0 0.00541654 -0 0.00541654)
(0.00541652 -0.00251868 -0 0.00541652 -0 0.00541652)
(0.00541653 -0.00251869 -0 0.00541653 -0 0.00541653)
(0.00541662 -0.00251873 -0 0.00541662 -0 0.00541662)
(0.00538461 -0.00250385 -0 0.00538462 -0 0.00538461)
(0.0053846 -0.00250384 -0 0.0053846 -0 0.0053846)
(0.00538462 -0.00250385 -0 0.00538462 -0 0.00538462)
(0.00538468 -0.00250388 -0 0.00538468 -0 0.00538468)
(0.00534019 -0.00248319 -0 0.00534019 -0 0.00534019)
(0.00534019 -0.00248319 -0 0.00534019 -0 0.00534019)
(0.00534021 -0.0024832 -0 0.00534021 -0 0.00534021)
(0.00534024 -0.00248321 -0 0.00534024 -0 0.00534024)
(0.00528549 -0.00245775 -0 0.00528549 -0 0.00528549)
(0.00528549 -0.00245776 -0 0.0052855 -0 0.0052855)
(0.00528553 -0.00245777 -0 0.00528552 -0 0.00528552)
(0.00528551 -0.00245776 -0 0.00528551 -0 0.00528551)
(0.00522206 -0.00242826 -0 0.00522207 -0 0.00522207)
(0.00522209 -0.00242827 -0 0.00522209 -0 0.00522209)
(0.00522212 -0.00242829 -0 0.00522212 -0 0.00522212)
(0.00522207 -0.00242826 -0 0.00522207 -0 0.00522207)
(0.00515103 -0.00239523 -0 0.00515103 -0 0.00515103)
(0.00515107 -0.00239525 -0 0.00515108 -0 0.00515107)
(0.0051511 -0.00239526 -0 0.0051511 -0 0.0051511)
(0.00515102 -0.00239522 -0 0.00515101 -0 0.00515102)
(0.00507319 -0.00235903 -0 0.00507319 -0 0.00507319)
(0.00507325 -0.00235906 -0 0.00507325 -0 0.00507325)
(0.00507327 -0.00235907 -0 0.00507327 -0 0.00507327)
(0.00507315 -0.00235902 -0 0.00507315 -0 0.00507315)
(0.00498913 -0.00231995 -0 0.00498914 -0 0.00498913)
(0.0049892 -0.00231998 -0 0.0049892 -0 0.0049892)
(0.00498922 -0.00231999 -0 0.00498922 -0 0.00498922)
(0.00498907 -0.00231992 -0 0.00498907 -0 0.00498907)
(0.00489933 -0.00227819 -0 0.00489933 -0 0.00489933)
(0.00489941 -0.00227822 -0 0.00489941 -0 0.00489941)
(0.00489942 -0.00227823 -0 0.00489942 -0 0.00489942)
(0.00489925 -0.00227815 -0 0.00489925 -0 0.00489925)
(0.00480422 -0.00223396 -0 0.00480422 -0 0.00480422)
(0.00480431 -0.002234 -0 0.0048043 -0 0.0048043)
(0.00480431 -0.002234 -0 0.00480431 -0 0.00480431)
(0.00480412 -0.00223392 -0 0.00480413 -0 0.00480412)
(0.00470428 -0.00218749 -0 0.00470427 -0 0.00470427)
(0.00470436 -0.00218753 -0 0.00470436 -0 0.00470436)
(0.00470436 -0.00218753 -0 0.00470437 -0 0.00470437)
(0.00470416 -0.00218744 -0 0.00470416 -0 0.00470416)
(0.00460009 -0.00213904 -0 0.00460008 -0 0.00460008)
(0.00460016 -0.00213908 -0 0.00460017 -0 0.00460016)
(0.00460017 -0.00213908 -0 0.00460018 -0 0.00460017)
(0.00459996 -0.00213898 -0 0.00459996 -0 0.00459996)
(0.00449239 -0.00208896 -0 0.00449239 -0 0.00449239)
(0.00449246 -0.002089 -0 0.00449248 -0 0.00449247)
(0.00449247 -0.002089 -0 0.00449246 -0 0.00449247)
(0.00449226 -0.0020889 -0 0.00449225 -0 0.00449226)
(0.00438204 -0.00203766 -0 0.00438207 -0 0.00438205)
(0.00438211 -0.00203769 -0 0.00438214 -0 0.00438212)
(0.00438213 -0.00203768 -0 0.0043821 -0 0.00438212)
(0.00438195 -0.0020376 -0 0.00438191 -0 0.00438193)
(0.00426984 -0.0019855 -0 0.00426992 -0 0.00426988)
(0.00426991 -0.00198552 -0 0.00426996 -0 0.00426994)
(0.00426997 -0.00198552 -0 0.00426989 -0 0.00426992)
(0.0042698 -0.00198545 -0 0.00426975 -0 0.00426978)
(0.00415619 -0.00192878 -0 0.00415627 -0 0.00415624)
(0.00415624 -0.00192842 -0 0.00415628 -0 0.00415626)
(0.00415631 -0.00192839 -0 0.00415623 -0 0.00415626)
(0.00415613 -0.00192734 -0 0.00415609 -0 0.00415611)
(0.00404107 -0.00186728 -0 0.00404112 -0 0.00404109)
(0.00404108 -0.00186691 -0 0.00404112 -0 0.0040411)
(0.00404114 -0.00186677 -0 0.00404109 -0 0.00404112)
(0.00404094 -0.00186607 -0 0.00404091 -0 0.00404093)
(0.00392454 -0.00180528 -0 0.00392455 -0 0.00392455)
(0.00392456 -0.00180525 -0 0.00392458 -0 0.00392457)
(0.00392459 -0.00180471 -0 0.00392457 -0 0.00392458)
(0.00392438 -0.00180419 -0 0.00392436 -0 0.00392437)
(0.00380687 -0.00174122 -0 0.00380686 -0 0.00380686)
(0.0038069 -0.00174116 -0 0.00380691 -0 0.00380691)
(0.00380691 -0.00174065 -0 0.00380692 -0 0.00380691)
(0.00380669 -0.00174012 -0 0.00380668 -0 0.00380668)
(0.00368836 -0.00167488 -0 0.00368833 -0 0.00368835)
(0.0036884 -0.00167491 -0 0.0036884 -0 0.0036884)
(0.0036884 -0.00167438 -0 0.00368842 -0 0.00368841)
(0.00368817 -0.00167388 -0 0.00368817 -0 0.00368817)
(0.00356934 -0.00160632 -0 0.00356931 -0 0.00356933)
(0.00356939 -0.00160639 -0 0.00356938 -0 0.00356939)
(0.00356939 -0.0016059 -0 0.00356942 -0 0.0035694)
(0.00356916 -0.00160541 -0 0.00356917 -0 0.00356916)
(0.00345021 -0.0015355 -0 0.00345018 -0 0.00345019)
(0.00345026 -0.00153559 -0 0.00345024 -0 0.00345025)
(0.00345025 -0.00153516 -0 0.00345028 -0 0.00345027)
(0.00345003 -0.0015347 -0 0.00345004 -0 0.00345003)
(0.00333138 -0.00146238 -0 0.00333135 -0 0.00333136)
(0.00333142 -0.00146249 -0 0.0033314 -0 0.00333141)
(0.00333142 -0.00146212 -0 0.00333145 -0 0.00333143)
(0.0033312 -0.0014617 -0 0.00333122 -0 0.00333121)
(0.00321333 -0.00138694 -0 0.0032133 -0 0.00321332)
(0.00321336 -0.00138705 -0 0.00321334 -0 0.00321335)
(0.00321336 -0.00138676 -0 0.0032134 -0 0.00321338)
(0.00321316 -0.00138638 -0 0.00321318 -0 0.00321317)
(0.00309661 -0.00130913 -0 0.00309658 -0 0.0030966)
(0.00309662 -0.00130923 -0 0.0030966 -0 0.00309661)
(0.00309663 -0.00130901 -0 0.00309666 -0 0.00309665)
(0.00309644 -0.00130868 -0 0.00309646 -0 0.00309645)
(0.00298182 -0.00122891 -0 0.00298179 -0 0.0029818)
(0.00298181 -0.00122899 -0 0.00298179 -0 0.0029818)
(0.00298183 -0.00122885 -0 0.00298186 -0 0.00298185)
(0.00298165 -0.00122857 -0 0.00298167 -0 0.00298166)
(0.00286963 -0.00114622 -0 0.0028696 -0 0.00286961)
(0.0028696 -0.00114629 -0 0.00286959 -0 0.0028696)
(0.00286963 -0.00114622 -0 0.00286966 -0 0.00286964)
(0.00286947 -0.00114598 -0 0.00286948 -0 0.00286947)
(0.00276079 -0.00106102 -0 0.00276077 -0 0.00276078)
(0.00276076 -0.00106108 -0 0.00276074 -0 0.00276075)
(0.00276079 -0.00106108 -0 0.00276081 -0 0.0027608)
(0.00276064 -0.00106088 -0 0.00276065 -0 0.00276065)
(0.00265615 -0.000973261 -0 0.00265614 -0 0.00265614)
(0.00265611 -0.000973314 -0 0.0026561 -0 0.0026561)
(0.00265614 -0.000973327 -0 0.00265616 -0 0.00265615)
(0.00265601 -0.000973205 -0 0.00265602 -0 0.00265602)
(0.00255663 -0.000882865 -0 0.00255661 -0 0.00255662)
(0.00255657 -0.000882924 -0 0.00255657 -0 0.00255657)
(0.00255659 -0.000882962 -0 0.00255661 -0 0.0025566)
(0.00255651 -0.000882888 -0 0.00255651 -0 0.00255651)
(0.00246322 -0.000789791 -0 0.00246322 -0 0.00246322)
(0.00246318 -0.000789888 -0 0.00246317 -0 0.00246318)
(0.00246317 -0.000789882 -0 0.00246318 -0 0.00246317)
(0.00246312 -0.000789876 -0 0.00246313 -0 0.00246312)
(0.00237703 -0.000694008 -0 0.00237703 -0 0.00237703)
(0.00237701 -0.000694059 -0 0.00237701 -0 0.00237701)
(0.00237698 -0.000694069 -0 0.00237698 -0 0.00237698)
(0.00237694 -0.000694095 -0 0.00237694 -0 0.00237694)
(0.00229922 -0.000595361 -0 0.00229921 -0 0.00229921)
(0.00229917 -0.000595416 -0 0.00229917 -0 0.00229917)
(0.00229918 -0.000595433 -0 0.00229918 -0 0.00229918)
(0.00229913 -0.000595475 -0 0.00229913 -0 0.00229913)
(0.00223099 -0.000493829 -0 0.00223099 -0 0.00223099)
(0.00223096 -0.000493876 -0 0.00223096 -0 0.00223096)
(0.00223099 -0.000493901 -0 0.00223099 -0 0.00223099)
(0.00223093 -0.00049394 -0 0.00223092 -0 0.00223092)
(0.00217365 -0.000389317 -0 0.00217364 -0 0.00217364)
(0.00217366 -0.000389353 -0 0.00217366 -0 0.00217366)
(0.00217369 -0.000389381 -0 0.0021737 -0 0.0021737)
(0.00217361 -0.000389412 -0 0.0021736 -0 0.00217361)
(0.00212854 -0.000281735 -0 0.00212854 -0 0.00212854)
(0.00212861 -0.000281767 -0 0.00212862 -0 0.00212861)
(0.00212858 -0.000281782 -0 0.00212859 -0 0.00212859)
(0.00212853 -0.000281811 -0 0.00212852 -0 0.00212853)
(0.00209705 -0.000170984 -0 0.00209705 -0 0.00209705)
(0.00209712 -0.000171001 -0 0.00209713 -0 0.00209713)
(0.00209711 -0.000171014 -0 0.00209711 -0 0.00209711)
(0.00209705 -0.000171029 -0 0.00209704 -0 0.00209705)
(0.00208058 -5.74031e-05 -0 0.00208057 -0 0.00208057)
(0.0020806 -5.74027e-05 -0 0.00208061 -0 0.00208061)
(0.00208067 -5.74157e-05 -0 0.00208067 -0 0.00208067)
(0.00208058 -5.74184e-05 -0 0.00208057 -0 0.00208057)
)
;

boundaryField
{
    inlet
    {
        type            cyclic;
    }
    outlet
    {
        type            cyclic;
    }
    fixedWalls-bottom
    {
        type            kqRWallFunction;
        value           nonuniform List<symmTensor> 4((7.47934e-06 -0 -0 7.47934e-06 -0 7.47934e-06) (7.47882e-06 -0 -0 7.47882e-06 -0 7.47882e-06) (7.4781e-06 -0 -0 7.4781e-06 -0 7.4781e-06) (7.4781e-06 -0 -0 7.4781e-06 -0 7.4781e-06));
    }
    fixedWalls-top
    {
        type            symmetry;
    }
    frontAndBack
    {
        type            empty;
    }
}


// ************************************************************************* //
