/*--------------------------------*- C++ -*----------------------------------*\
  =========                 |
  \\      /  F ield         | OpenFOAM: The Open Source CFD Toolbox
   \\    /   O peration     | Website:  https://openfoam.org
    \\  /    A nd           | Version:  10
     \\/     M anipulation  |
\*---------------------------------------------------------------------------*/
FoamFile
{
    format      ascii;
    class       volVectorField;
    location    "519";
    object      U;
}
// * * * * * * * * * * * * * * * * * * * * * * * * * * * * * * * * * * * * * //

dimensions      [0 1 -1 0 0 0 0];

internalField   nonuniform List<vector> 
200
(
(0.0794221 -1.71498e-09 0)
(0.0794219 2.28444e-09 0)
(0.0794213 1.15313e-09 0)
(0.0794209 -2.26511e-09 0)
(0.23795 -2.35456e-08 0)
(0.237949 2.2489e-08 0)
(0.237947 2.24003e-08 0)
(0.237946 -2.23996e-08 0)
(0.384457 -5.86075e-08 0)
(0.384457 4.84269e-08 0)
(0.384454 5.78945e-08 0)
(0.384453 -4.82924e-08 0)
(0.496589 -8.55011e-08 0)
(0.49659 6.12566e-08 0)
(0.496588 8.49701e-08 0)
(0.496588 -6.10874e-08 0)
(0.577215 -9.39081e-08 0)
(0.577215 7.0973e-08 0)
(0.577215 9.3488e-08 0)
(0.577215 -7.07743e-08 0)
(0.637703 -8.83344e-08 0)
(0.637702 7.20423e-08 0)
(0.637702 8.79661e-08 0)
(0.637703 -7.1829e-08 0)
(0.685056 -7.66917e-08 0)
(0.685055 7.7315e-08 0)
(0.685055 7.63574e-08 0)
(0.685056 -7.70927e-08 0)
(0.723557 -6.52232e-08 0)
(0.723556 8.68143e-08 0)
(0.723556 6.49077e-08 0)
(0.723557 -8.65873e-08 0)
(0.755859 -5.72471e-08 0)
(0.755858 9.78458e-08 0)
(0.755858 5.6946e-08 0)
(0.755859 -9.76157e-08 0)
(0.783658 -5.37029e-08 0)
(0.783657 1.08225e-07 0)
(0.783657 5.34118e-08 0)
(0.783657 -1.07993e-07 0)
(0.808072 -5.38842e-08 0)
(0.808072 1.16611e-07 0)
(0.808072 5.36009e-08 0)
(0.808071 -1.16379e-07 0)
(0.829867 -5.64537e-08 0)
(0.829867 1.22293e-07 0)
(0.829867 5.61766e-08 0)
(0.829866 -1.22062e-07 0)
(0.849582 -6.01357e-08 0)
(0.849581 1.25118e-07 0)
(0.849582 5.98641e-08 0)
(0.849581 -1.24889e-07 0)
(0.867607 -6.40052e-08 0)
(0.867606 1.25358e-07 0)
(0.867607 6.37383e-08 0)
(0.867606 -1.25131e-07 0)
(0.884233 -6.75853e-08 0)
(0.884232 1.23648e-07 0)
(0.884233 6.73237e-08 0)
(0.884232 -1.23425e-07 0)
(0.899681 -7.07547e-08 0)
(0.899681 1.20719e-07 0)
(0.899681 7.0498e-08 0)
(0.899681 -1.20499e-07 0)
(0.914123 -7.35986e-08 0)
(0.914123 1.17176e-07 0)
(0.914123 7.33476e-08 0)
(0.914123 -1.16959e-07 0)
(0.927695 -7.63309e-08 0)
(0.927695 1.13517e-07 0)
(0.927695 7.60854e-08 0)
(0.927695 -1.13304e-07 0)
(0.940505 -7.91936e-08 0)
(0.940505 1.1022e-07 0)
(0.940505 7.89545e-08 0)
(0.940505 -1.10012e-07 0)
(0.95264 -8.22815e-08 0)
(0.95264 1.08141e-07 0)
(0.95264 8.20488e-08 0)
(0.952639 -1.07938e-07 0)
(0.964167 -8.49253e-08 0)
(0.964167 1.0852e-07 0)
(0.964167 8.4699e-08 0)
(0.964167 -1.08322e-07 0)
(0.975141 -8.50389e-08 0)
(0.975141 1.12175e-07 0)
(0.975141 8.48197e-08 0)
(0.975141 -1.11983e-07 0)
(0.985599 -7.9541e-08 0)
(0.985598 1.17477e-07 0)
(0.985598 7.93288e-08 0)
(0.985599 -1.17291e-07 0)
(0.995565 -6.80911e-08 0)
(0.995565 1.18418e-07 0)
(0.995565 6.7887e-08 0)
(0.995565 -1.18238e-07 0)
(1.00505 -6.08602e-08 0)
(1.00505 1.06131e-07 0)
(1.00506 6.06624e-08 0)
(1.00505 -1.05954e-07 0)
(1.01408 -8.22032e-08 0)
(1.01408 7.605e-08 0)
(1.01408 8.20155e-08 0)
(1.01408 -7.58783e-08 0)
(1.02265 -1.49422e-07 0)
(1.02265 3.3853e-08 0)
(1.02265 1.49238e-07 0)
(1.02265 -3.36953e-08 0)
(1.03081 -2.22567e-07 0)
(1.03081 -1.59552e-08 0)
(1.03081 2.22388e-07 0)
(1.03081 1.61088e-08 0)
(1.03862 -3.0168e-07 0)
(1.03862 -5.55319e-08 0)
(1.03862 3.01511e-07 0)
(1.03862 5.56879e-08 0)
(1.04611 -3.30954e-07 0)
(1.04611 -8.36193e-08 0)
(1.04611 3.30792e-07 0)
(1.04611 8.37676e-08 0)
(1.05329 -3.30252e-07 0)
(1.05329 -1.00034e-07 0)
(1.05329 3.30095e-07 0)
(1.05329 1.00177e-07 0)
(1.06018 -3.09568e-07 0)
(1.06018 -1.04352e-07 0)
(1.06018 3.09417e-07 0)
(1.06018 1.04489e-07 0)
(1.06677 -2.80022e-07 0)
(1.06677 -9.928e-08 0)
(1.06677 2.79877e-07 0)
(1.06677 9.94115e-08 0)
(1.07308 -2.47233e-07 0)
(1.07308 -8.68247e-08 0)
(1.07308 2.47094e-07 0)
(1.07308 8.69513e-08 0)
(1.07911 -2.13723e-07 0)
(1.07911 -6.90057e-08 0)
(1.07911 2.1359e-07 0)
(1.07912 6.91273e-08 0)
(1.08487 -1.80632e-07 0)
(1.08486 -4.8093e-08 0)
(1.08486 1.80503e-07 0)
(1.08487 4.82105e-08 0)
(1.09033 -1.48559e-07 0)
(1.09033 -2.63201e-08 0)
(1.09033 1.48437e-07 0)
(1.09034 2.64321e-08 0)
(1.09552 -1.17822e-07 0)
(1.09552 -5.43631e-09 0)
(1.09552 1.17706e-07 0)
(1.09552 5.54344e-09 0)
(1.10041 -8.93428e-08 0)
(1.10041 1.35619e-08 0)
(1.10041 8.92342e-08 0)
(1.10041 -1.34618e-08 0)
(1.105 -6.40419e-08 0)
(1.105 2.94902e-08 0)
(1.105 6.39404e-08 0)
(1.105 -2.93963e-08 0)
(1.10928 -4.35712e-08 0)
(1.10928 4.07717e-08 0)
(1.10928 4.34793e-08 0)
(1.10928 -4.06865e-08 0)
(1.11323 -2.96045e-08 0)
(1.11323 4.91084e-08 0)
(1.11323 2.95225e-08 0)
(1.11324 -4.90318e-08 0)
(1.11685 -2.02832e-08 0)
(1.11685 5.38509e-08 0)
(1.11685 2.02132e-08 0)
(1.11685 -5.37849e-08 0)
(1.12011 -1.58001e-08 0)
(1.12011 5.51196e-08 0)
(1.12011 1.57427e-08 0)
(1.12011 -5.50651e-08 0)
(1.12298 -1.2388e-08 0)
(1.12298 5.37358e-08 0)
(1.12298 1.23432e-08 0)
(1.12298 -5.36914e-08 0)
(1.12546 -9.56445e-09 0)
(1.12546 4.78207e-08 0)
(1.12546 9.53312e-09 0)
(1.12546 -4.77869e-08 0)
(1.12751 -6.8066e-09 0)
(1.12751 3.90603e-08 0)
(1.12751 6.7877e-09 0)
(1.12751 -3.90361e-08 0)
(1.1291 -3.91981e-09 0)
(1.1291 2.90408e-08 0)
(1.1291 3.91274e-09 0)
(1.1291 -2.9027e-08 0)
(1.13019 -1.28688e-09 0)
(1.13019 1.7505e-08 0)
(1.13019 1.28034e-09 0)
(1.13019 -1.75136e-08 0)
(1.13076 -9.63172e-11 0)
(1.13076 6.25766e-09 0)
(1.13076 1.06628e-10 0)
(1.13076 -6.25313e-09 0)
)
;

boundaryField
{
    inlet
    {
        type            cyclic;
    }
    outlet
    {
        type            cyclic;
    }
    fixedWalls-bottom
    {
        type            noSlip;
    }
    fixedWalls-top
    {
        type            symmetry;
    }
    frontAndBack
    {
        type            empty;
    }
}


// ************************************************************************* //
