/*--------------------------------*- C++ -*----------------------------------*\
  =========                 |
  \\      /  F ield         | OpenFOAM: The Open Source CFD Toolbox
   \\    /   O peration     | Website:  https://openfoam.org
    \\  /    A nd           | Version:  10
     \\/     M anipulation  |
\*---------------------------------------------------------------------------*/
FoamFile
{
    format      ascii;
    class       volScalarField;
    location    "125";
    object      k;
}
// * * * * * * * * * * * * * * * * * * * * * * * * * * * * * * * * * * * * * //

dimensions      [0 2 -2 0 0 0 0];

internalField   nonuniform List<scalar> 
200
(
2.89851e-12
2.89248e-12
2.89248e-12
2.89973e-12
8.69064e-11
8.67254e-11
8.67254e-11
8.69429e-11
6.2418e-10
6.22882e-10
6.22882e-10
6.24441e-10
2.30751e-09
2.30272e-09
2.30271e-09
2.30847e-09
6.06647e-09
6.0538e-09
6.05376e-09
6.06895e-09
1.30327e-08
1.30052e-08
1.3005e-08
1.30378e-08
2.45246e-08
2.44722e-08
2.44718e-08
2.4534e-08
4.20363e-08
4.19451e-08
4.1944e-08
4.20517e-08
6.72256e-08
6.70767e-08
6.70743e-08
6.72488e-08
1.01899e-07
1.01668e-07
1.01663e-07
1.01932e-07
1.47995e-07
1.47648e-07
1.47639e-07
1.48039e-07
2.0755e-07
2.07047e-07
2.07031e-07
2.07607e-07
2.82661e-07
2.81948e-07
2.81921e-07
2.8273e-07
3.75413e-07
3.74425e-07
3.74381e-07
3.75489e-07
4.87782e-07
4.86444e-07
4.86376e-07
4.87861e-07
6.21511e-07
6.19741e-07
6.19639e-07
6.2158e-07
7.77949e-07
7.75665e-07
7.75518e-07
7.77992e-07
9.57881e-07
9.55009e-07
9.54806e-07
9.57878e-07
1.16138e-06
1.15785e-06
1.15758e-06
1.1613e-06
1.38763e-06
1.38341e-06
1.38306e-06
1.38746e-06
1.63488e-06
1.62997e-06
1.62954e-06
1.63461e-06
1.90045e-06
1.89488e-06
1.89435e-06
1.90005e-06
2.18074e-06
2.17458e-06
2.17397e-06
2.18021e-06
2.47146e-06
2.46481e-06
2.46412e-06
2.47082e-06
2.76783e-06
2.7608e-06
2.76005e-06
2.76708e-06
3.06479e-06
3.05751e-06
3.0567e-06
3.06396e-06
3.35729e-06
3.34987e-06
3.34903e-06
3.35641e-06
3.64053e-06
3.63306e-06
3.6322e-06
3.63962e-06
3.9101e-06
3.90266e-06
3.9018e-06
3.90919e-06
4.16217e-06
4.15483e-06
4.15398e-06
4.16128e-06
4.39357e-06
4.38635e-06
4.38552e-06
4.39272e-06
4.60183e-06
4.59474e-06
4.59393e-06
4.60101e-06
4.78514e-06
4.77819e-06
4.77742e-06
4.78436e-06
4.94241e-06
4.9356e-06
4.93485e-06
4.94167e-06
5.07317e-06
5.06648e-06
5.06576e-06
5.07245e-06
5.17751e-06
5.17094e-06
5.17024e-06
5.17682e-06
5.25607e-06
5.2496e-06
5.24892e-06
5.25539e-06
5.30992e-06
5.30356e-06
5.30289e-06
5.30925e-06
5.34056e-06
5.33431e-06
5.33366e-06
5.3399e-06
5.34984e-06
5.34371e-06
5.34306e-06
5.34919e-06
5.33992e-06
5.3339e-06
5.33326e-06
5.33928e-06
5.31321e-06
5.30731e-06
5.30668e-06
5.31258e-06
5.27237e-06
5.26659e-06
5.26596e-06
5.27175e-06
5.22024e-06
5.21457e-06
5.21395e-06
5.21964e-06
5.15985e-06
5.15428e-06
5.15366e-06
5.15927e-06
5.09438e-06
5.08887e-06
5.08825e-06
5.09381e-06
5.02717e-06
5.02166e-06
5.02102e-06
5.0266e-06
4.96173e-06
4.95609e-06
4.95541e-06
4.9611e-06
4.90175e-06
4.89573e-06
4.89501e-06
4.9009e-06
4.85115e-06
4.84424e-06
4.84355e-06
4.84968e-06
)
;

boundaryField
{
    inlet
    {
        type            cyclic;
    }
    outlet
    {
        type            cyclic;
    }
    fixedWalls-bottom
    {
        type            kqRWallFunction;
        value           nonuniform List<scalar> 4(2.89851e-12 2.89248e-12 2.89248e-12 2.89973e-12);
    }
    fixedWalls-top
    {
        type            symmetry;
    }
    frontAndBack
    {
        type            empty;
    }
}


// ************************************************************************* //
