/*--------------------------------*- C++ -*----------------------------------*\
  =========                 |
  \\      /  F ield         | OpenFOAM: The Open Source CFD Toolbox
   \\    /   O peration     | Website:  https://openfoam.org
    \\  /    A nd           | Version:  10
     \\/     M anipulation  |
\*---------------------------------------------------------------------------*/
FoamFile
{
    format      ascii;
    class       volScalarField;
    location    "125";
    object      nut;
}
// * * * * * * * * * * * * * * * * * * * * * * * * * * * * * * * * * * * * * //

dimensions      [0 2 -1 0 0 0 0];

internalField   nonuniform List<scalar> 
200
(
2.98971e-18
2.98349e-18
2.98349e-18
2.99097e-18
5.28495e-16
5.27385e-16
5.27385e-16
5.28717e-16
1.14379e-14
1.14138e-14
1.14138e-14
1.14427e-14
9.13793e-14
9.11865e-14
9.11863e-14
9.14168e-14
4.31339e-13
4.3043e-13
4.30428e-13
4.31513e-13
1.48355e-12
1.48042e-12
1.4804e-12
1.48413e-12
4.13883e-12
4.13007e-12
4.13e-12
4.14039e-12
9.9569e-12
9.93582e-12
9.93558e-12
9.9605e-12
2.14551e-11
2.14099e-11
2.14092e-11
2.14626e-11
4.24662e-11
4.23772e-11
4.23751e-11
4.24808e-11
7.85924e-11
7.84267e-11
7.84216e-11
7.86204e-11
1.37814e-10
1.37513e-10
1.37501e-10
1.37867e-10
2.31354e-10
2.30804e-10
2.30776e-10
2.31452e-10
3.7493e-10
3.73895e-10
3.73834e-10
3.75103e-10
5.90558e-10
5.88564e-10
5.88431e-10
5.90836e-10
9.09045e-10
9.05171e-10
9.04891e-10
9.09435e-10
1.37326e-09
1.36581e-09
1.36524e-09
1.37368e-09
2.04206e-09
2.02813e-09
2.027e-09
2.04222e-09
2.9945e-09
2.96929e-09
2.96716e-09
2.99369e-09
4.33306e-09
4.28921e-09
4.28533e-09
4.32985e-09
6.18359e-09
6.11064e-09
6.10387e-09
6.1754e-09
8.68853e-09
8.57311e-09
8.56182e-09
8.67131e-09
1.19891e-08
1.18163e-08
1.17985e-08
1.19573e-08
1.61939e-08
1.59509e-08
1.59242e-08
1.61409e-08
2.13378e-08
2.10189e-08
2.09814e-08
2.12578e-08
2.73442e-08
2.6956e-08
2.69071e-08
2.7234e-08
3.40115e-08
3.35755e-08
3.35163e-08
3.3873e-08
4.10393e-08
4.05892e-08
4.05227e-08
4.08798e-08
4.8089e-08
4.76632e-08
4.75942e-08
4.79204e-08
5.48543e-08
5.44868e-08
5.44201e-08
5.46894e-08
6.11097e-08
6.0824e-08
6.07639e-08
6.09597e-08
6.6726e-08
6.65336e-08
6.64825e-08
6.65984e-08
7.1657e-08
7.15594e-08
7.15182e-08
7.15546e-08
7.59156e-08
7.59052e-08
7.5875e-08
7.58379e-08
7.95464e-08
7.96101e-08
7.95918e-08
7.94909e-08
8.26058e-08
8.27306e-08
8.27238e-08
8.25694e-08
8.51519e-08
8.53248e-08
8.53266e-08
8.51311e-08
8.72386e-08
8.74478e-08
8.74567e-08
8.72302e-08
8.89075e-08
8.91498e-08
8.91644e-08
8.89089e-08
9.02064e-08
9.0477e-08
9.04962e-08
9.02151e-08
9.11773e-08
9.14725e-08
9.14954e-08
9.11915e-08
9.18604e-08
9.2177e-08
9.22028e-08
9.18785e-08
9.22945e-08
9.263e-08
9.26581e-08
9.23155e-08
9.25178e-08
9.28698e-08
9.28999e-08
9.25411e-08
9.25673e-08
9.29338e-08
9.29656e-08
9.25928e-08
9.24782e-08
9.28573e-08
9.28911e-08
9.25065e-08
9.22824e-08
9.26732e-08
9.27093e-08
9.23154e-08
9.2006e-08
9.24097e-08
9.24492e-08
9.20487e-08
9.16657e-08
9.20896e-08
9.2134e-08
9.17295e-08
9.12618e-08
9.17298e-08
9.17798e-08
9.13747e-08
)
;

boundaryField
{
    inlet
    {
        type            cyclic;
    }
    outlet
    {
        type            cyclic;
    }
    fixedWalls-bottom
    {
        type            nutkWallFunction;
        Cmu             0.09;
        kappa           0.41;
        E               9.8;
        value           uniform 0;
    }
    fixedWalls-top
    {
        type            symmetry;
    }
    frontAndBack
    {
        type            empty;
    }
}


// ************************************************************************* //
