/*--------------------------------*- C++ -*----------------------------------*\
  =========                 |
  \\      /  F ield         | OpenFOAM: The Open Source CFD Toolbox
   \\    /   O peration     | Website:  https://openfoam.org
    \\  /    A nd           | Version:  10
     \\/     M anipulation  |
\*---------------------------------------------------------------------------*/
FoamFile
{
    format      ascii;
    class       volScalarField;
    location    "125";
    object      omega;
}
// * * * * * * * * * * * * * * * * * * * * * * * * * * * * * * * * * * * * * //

dimensions      [0 0 -1 0 0 0 0];

internalField   nonuniform List<scalar> 
200
(
969495
969495
969495
969495
164441
164444
164444
164441
54571
54572.8
54572.8
54571.1
25252.1
25252.8
25252.8
25252.2
14064.3
14064.5
14064.5
14064.3
8784.76
8784.79
8784.79
8784.81
5925.49
5925.38
5925.38
5925.51
4221.83
4221.6
4221.6
4221.84
3133.31
3132.98
3132.98
3133.3
2399.54
2399.12
2399.13
2399.49
1883.07
1882.63
1882.64
1882.96
1506.01
1505.65
1505.67
1505.85
1221.77
1221.59
1221.62
1221.54
1001.29
1001.42
1001.46
1001.03
825.968
826.494
826.565
825.712
683.697
684.668
684.767
683.479
566.499
567.914
568.044
566.357
469.076
470.883
471.044
469.037
387.837
389.942
390.131
387.916
320.241
322.533
322.744
320.441
264.391
266.744
266.968
264.697
218.73
221.026
221.256
219.119
181.894
184.031
184.259
182.334
152.617
154.524
154.741
153.078
129.715
131.349
131.547
130.168
112.082
113.426
113.602
112.505
98.7104
99.7712
99.9225
99.0883
88.7084
89.5081
89.6337
89.0322
81.3095
81.88
81.9807
81.5768
75.8768
76.2538
76.3317
76.0895
71.8965
72.1154
72.1732
72.0594
68.966
69.0589
69.0999
69.0858
66.7784
66.7724
66.8
66.8631
65.104
65.0233
65.0393
65.1609
63.7762
63.6412
63.6468
63.8117
62.6774
62.5034
62.5
62.6966
61.7258
61.5249
61.5156
61.7329
60.8666
60.6484
60.6345
60.8648
60.0687
59.8354
59.8183
60.0604
59.3067
59.0615
59.0418
59.2938
58.5663
58.3115
58.2899
58.5502
57.8401
57.5774
57.5544
57.8218
57.1255
56.8562
56.8322
57.1058
56.4242
56.1493
56.1244
56.4034
55.7416
55.4618
55.4362
55.7199
55.0874
54.8031
54.7765
55.0644
54.476
54.1868
54.1588
54.4503
53.9284
53.6317
53.6015
53.8965
53.4742
53.1627
53.1292
53.4277
53.1565
52.8098
52.7736
53.0747
)
;

boundaryField
{
    inlet
    {
        type            cyclic;
    }
    outlet
    {
        type            cyclic;
    }
    fixedWalls-bottom
    {
        beta1           0.075;
        blended         0;
        type            omegaWallFunction;
        value           uniform 969495;
    }
    fixedWalls-top
    {
        type            symmetry;
    }
    frontAndBack
    {
        type            empty;
    }
}


// ************************************************************************* //
