/*--------------------------------*- C++ -*----------------------------------*\
  =========                 |
  \\      /  F ield         | OpenFOAM: The Open Source CFD Toolbox
   \\    /   O peration     | Website:  https://openfoam.org
    \\  /    A nd           | Version:  10
     \\/     M anipulation  |
\*---------------------------------------------------------------------------*/
FoamFile
{
    format      ascii;
    class       volScalarField;
    location    "125";
    object      p;
}
// * * * * * * * * * * * * * * * * * * * * * * * * * * * * * * * * * * * * * //

dimensions      [0 2 -2 0 0 0 0];

internalField   nonuniform List<scalar> 
200
(
-1.02887e-06
-2.87886e-05
-0.000341219
-0.000328698
-1.48698e-05
-3.30132e-05
-0.000337448
-0.000324589
-1.83839e-05
-3.59296e-05
-0.000334989
-0.000321399
-1.57519e-05
-3.63339e-05
-0.000334846
-0.000320649
-1.34053e-05
-3.49048e-05
-0.000336423
-0.000321857
-1.02264e-05
-3.17359e-05
-0.000339417
-0.000324727
-6.00106e-06
-2.72908e-05
-0.000343528
-0.00032889
-5.07804e-07
-2.15259e-05
-0.000348616
-0.000334266
5.53067e-06
-1.49047e-05
-0.000354418
-0.000340547
1.21691e-05
-7.42108e-06
-0.000360734
-0.000347597
1.89277e-05
4.86932e-07
-0.000367339
-0.00035512
2.58352e-05
8.77779e-06
-0.00037398
-0.00036293
3.24981e-05
1.70767e-05
-0.000380501
-0.000370791
3.8863e-05
2.52902e-05
-0.000386605
-0.000378479
4.46147e-05
3.31117e-05
-0.000392208
-0.000385819
4.96352e-05
4.03791e-05
-0.000396976
-0.000392541
5.37135e-05
4.68909e-05
-0.000400902
-0.000398551
5.66735e-05
5.24112e-05
-0.000403607
-0.000403513
5.84185e-05
5.68574e-05
-0.000405181
-0.000407445
5.87173e-05
5.99264e-05
-0.000405221
-0.000409948
5.75885e-05
6.16521e-05
-0.000403902
-0.000411155
5.47548e-05
6.16669e-05
-0.000400798
-0.000410601
5.03515e-05
6.01296e-05
-0.000396174
-0.000408545
4.40718e-05
5.66356e-05
-0.00038961
-0.000404482
3.61532e-05
5.14452e-05
-0.000381438
-0.000398774
2.62871e-05
4.41424e-05
-0.000371275
-0.00039091
1.47908e-05
3.50734e-05
-0.000359492
-0.000381331
1.38248e-06
2.38408e-05
-0.000345771
-0.000369548
-1.35676e-05
1.08538e-05
-0.000330501
-0.000356062
-3.02863e-05
-4.23576e-06
-0.000313454
-0.000340438
-4.83778e-05
-2.09813e-05
-0.000295012
-0.000323208
-6.79896e-05
-3.96515e-05
-0.000275056
-0.000304021
-8.87269e-05
-5.97908e-05
-0.000253944
-0.000283412
-0.000110646
-8.157e-05
-0.000231669
-0.000261137
-0.000133366
-0.000104542
-0.00020856
-0.000237718
-0.00015685
-0.000128767
-0.000184719
-0.000213027
-0.000180724
-0.00015381
-0.000160456
-0.000187564
-0.000204867
-0.000179632
-0.000135967
-0.000161316
-0.000228862
-0.000205784
-0.000111599
-0.000134784
-0.000252518
-0.000232164
-8.76274e-05
-0.000108028
-0.000275239
-0.000258205
-6.45615e-05
-8.16556e-05
-0.000296703
-0.000283804
-4.28375e-05
-5.57412e-05
-0.000315865
-0.000308015
-2.33657e-05
-3.12573e-05
-0.000331967
-0.000330624
-7.09494e-06
-8.4077e-06
-0.000343084
-0.000349742
4.27643e-06
1.09078e-05
-0.000347433
-0.00036391
8.70643e-06
2.52415e-05
-0.000342185
-0.000368863
3.71272e-06
3.03302e-05
-0.000327451
-0.000362946
-1.11789e-05
2.45102e-05
-0.000308545
-0.000348543
-2.99387e-05
1.02068e-05
-0.000304218
-0.000349111
-3.40006e-05
1.09824e-05
)
;

boundaryField
{
    inlet
    {
        type            cyclic;
    }
    outlet
    {
        type            cyclic;
    }
    fixedWalls-bottom
    {
        type            zeroGradient;
    }
    fixedWalls-top
    {
        type            symmetry;
    }
    frontAndBack
    {
        type            empty;
    }
}


// ************************************************************************* //
