/*--------------------------------*- C++ -*----------------------------------*\
  =========                 |
  \\      /  F ield         | OpenFOAM: The Open Source CFD Toolbox
   \\    /   O peration     | Website:  https://openfoam.org
    \\  /    A nd           | Version:  10
     \\/     M anipulation  |
\*---------------------------------------------------------------------------*/
FoamFile
{
    format      ascii;
    class       surfaceScalarField;
    location    "125";
    object      phi;
}
// * * * * * * * * * * * * * * * * * * * * * * * * * * * * * * * * * * * * * //

dimensions      [0 3 -1 0 0 0 0];

internalField   nonuniform List<scalar> 
346
(
0.00484994
-9.71187e-09
0.00484996
-2.19403e-08
0.00484994
2.11168e-08
2.27425e-08
0.0150175
-5.34124e-08
0.0150175
-7.23926e-08
0.0150175
6.68706e-08
7.17445e-08
0.0259589
-1.14095e-07
0.025959
-1.40348e-07
0.0259589
1.26831e-07
1.38924e-07
0.037715
-1.80864e-07
0.0377151
-2.19403e-07
0.037715
1.94526e-07
2.16925e-07
0.0503278
-2.50023e-07
0.0503278
-3.01476e-07
0.0503278
2.62953e-07
2.98511e-07
0.0638408
-3.14506e-07
0.0638408
-3.82597e-07
0.0638408
3.28065e-07
3.78744e-07
0.0782989
-3.71766e-07
0.0782989
-4.56562e-07
0.0782989
3.84862e-07
4.52279e-07
0.0937483
-4.17407e-07
0.0937484
-5.21094e-07
0.0937484
4.31019e-07
5.16152e-07
0.110237
-4.50212e-07
0.110237
-5.71934e-07
0.110237
4.63479e-07
5.66718e-07
0.127813
-4.67646e-07
0.127813
-6.08195e-07
0.127813
4.81304e-07
6.02622e-07
0.146526
-4.69819e-07
0.146526
-6.27453e-07
0.146526
4.8317e-07
6.21761e-07
0.166429
-4.55489e-07
0.166429
-6.29661e-07
0.166429
4.69086e-07
6.2392e-07
0.187571
-4.25953e-07
0.187571
-6.14027e-07
0.187571
4.39201e-07
6.08345e-07
0.210008
-3.80841e-07
0.210008
-5.81132e-07
0.210008
3.94182e-07
5.75696e-07
0.233791
-3.2234e-07
0.233791
-5.31503e-07
0.233791
3.35276e-07
5.26272e-07
0.258975
-2.50735e-07
0.258975
-4.66095e-07
0.258975
2.63642e-07
4.61342e-07
0.285614
-1.68807e-07
0.285613
-3.86446e-07
0.285614
1.81215e-07
3.8197e-07
0.313762
-7.71894e-08
0.313762
-2.93708e-07
0.313762
8.94759e-08
2.89874e-07
0.343473
2.10701e-08
0.343473
-1.90085e-07
0.343473
-9.34992e-09
1.86545e-07
0.374801
1.25048e-07
0.374801
-7.69215e-08
0.374801
-1.13506e-07
7.41241e-08
0.407798
2.31724e-07
0.407798
4.32288e-08
0.407798
-2.20828e-07
-4.57646e-08
0.442515
3.40065e-07
0.442515
1.68959e-07
0.442515
-3.29376e-07
-1.70699e-07
0.479001
4.47297e-07
0.479001
2.97604e-07
0.479001
-4.3728e-07
-2.99125e-07
0.517302
5.52345e-07
0.517302
4.27703e-07
0.517302
-5.42548e-07
-4.28404e-07
0.557463
6.52859e-07
0.557462
5.56691e-07
0.557463
-6.43727e-07
-5.57204e-07
0.599522
7.47789e-07
0.599522
6.83112e-07
0.599522
-7.38886e-07
-6.82813e-07
0.643515
8.35323e-07
0.643515
8.04661e-07
0.643515
-8.27053e-07
-8.04209e-07
0.689471
9.145e-07
0.689471
9.19966e-07
0.689471
-9.0647e-07
-9.18743e-07
0.737414
9.84094e-07
0.737414
1.02707e-06
0.737414
-9.76652e-07
-1.02574e-06
0.787358
1.04329e-06
0.787358
1.12476e-06
0.787358
-1.0361e-06
-1.12275e-06
0.83931
1.0914e-06
0.83931
1.21147e-06
0.83931
-1.08476e-06
-1.20941e-06
0.893266
1.12781e-06
0.893266
1.28621e-06
0.893266
-1.12143e-06
-1.28358e-06
0.949211
1.15221e-06
0.949211
1.34776e-06
0.949211
-1.14632e-06
-1.34515e-06
1.00711
1.16413e-06
1.00711
1.39537e-06
1.00711
-1.15852e-06
-1.39233e-06
1.06693
1.1634e-06
1.06693
1.42804e-06
1.06693
-1.15825e-06
-1.42509e-06
1.12859
1.14952e-06
1.12859
1.44516e-06
1.12859
-1.14465e-06
-1.44194e-06
1.19203
1.12199e-06
1.19203
1.44568e-06
1.19203
-1.11755e-06
-1.44261e-06
1.25712
1.07974e-06
1.25712
1.42875e-06
1.25712
-1.07558e-06
-1.42556e-06
1.32374
1.02133e-06
1.32374
1.39273e-06
1.32374
-1.01758e-06
-1.38974e-06
1.39172
9.44146e-07
1.39172
1.33552e-06
1.39172
-9.4068e-07
-1.33259e-06
1.46087
8.45041e-07
1.46087
1.25407e-06
1.46087
-8.41963e-07
-1.25138e-06
1.53097
7.19258e-07
1.53097
1.14338e-06
1.53097
-7.16511e-07
-1.14091e-06
1.60172
5.62662e-07
1.60172
9.9802e-07
1.60172
-5.60277e-07
-9.95864e-07
1.67282
3.72521e-07
1.67282
8.10748e-07
1.67282
-3.70652e-07
-8.08974e-07
1.7439
1.53969e-07
1.7439
5.78934e-07
1.7439
-1.52425e-07
-5.77659e-07
1.81451
-7.26822e-08
1.81451
3.10249e-07
1.81451
7.36682e-08
-3.09384e-07
1.88417
-2.59679e-07
1.88417
4.23218e-08
1.88417
2.60336e-07
-4.1816e-08
1.95231
-3.26239e-07
1.95231
-1.36005e-07
1.95231
3.26483e-07
1.36248e-07
2.01827
-1.75317e-07
2.01827
-7.44761e-08
2.01827
1.7515e-07
7.4663e-08
2.08132
2.08132
2.08132
)
;

boundaryField
{
    inlet
    {
        type            cyclic;
        value           nonuniform List<scalar> 
50
(
-2.08132
-2.01827
-1.95231
-1.88417
-1.81451
-1.7439
-1.67282
-1.60172
-1.53097
-1.46087
-1.39172
-1.32374
-1.25712
-1.19203
-1.12859
-1.06693
-1.00711
-0.949211
-0.893266
-0.83931
-0.787358
-0.737414
-0.689471
-0.643515
-0.599522
-0.557463
-0.517302
-0.479001
-0.442515
-0.407798
-0.374801
-0.343473
-0.313762
-0.285614
-0.258975
-0.233791
-0.210008
-0.187572
-0.166429
-0.146526
-0.127813
-0.110237
-0.0937483
-0.0782988
-0.0638407
-0.0503277
-0.0377149
-0.0259589
-0.0150174
-0.00484992
)
;
    }
    outlet
    {
        type            cyclic;
        value           nonuniform List<scalar> 
50
(
2.08132
2.01827
1.95231
1.88417
1.81451
1.7439
1.67282
1.60172
1.53097
1.46087
1.39172
1.32374
1.25712
1.19203
1.12859
1.06693
1.00711
0.949211
0.893266
0.83931
0.787358
0.737414
0.689471
0.643515
0.599522
0.557463
0.517302
0.479001
0.442515
0.407798
0.374801
0.343473
0.313762
0.285614
0.258975
0.233791
0.210008
0.187572
0.166429
0.146526
0.127813
0.110237
0.0937483
0.0782988
0.0638407
0.0503277
0.0377149
0.0259589
0.0150174
0.00484992
)
;
    }
    fixedWalls-bottom
    {
        type            calculated;
        value           uniform 0;
    }
    fixedWalls-top
    {
        type            symmetry;
        value           uniform 0;
    }
    frontAndBack
    {
        type            empty;
        value           nonuniform List<scalar> 0();
    }
}


// ************************************************************************* //
