/*--------------------------------*- C++ -*----------------------------------*\
  =========                 |
  \\      /  F ield         | OpenFOAM: The Open Source CFD Toolbox
   \\    /   O peration     | Website:  https://openfoam.org
    \\  /    A nd           | Version:  10
     \\/     M anipulation  |
\*---------------------------------------------------------------------------*/
FoamFile
{
    format      ascii;
    class       volSymmTensorField;
    location    "125";
    object      R;
}
// * * * * * * * * * * * * * * * * * * * * * * * * * * * * * * * * * * * * * //

dimensions      [0 2 -2 0 0 0 0];

internalField   nonuniform List<symmTensor> 
200
(
(1.93234e-12 -3.47048e-18 -0 1.93234e-12 -0 1.93234e-12)
(1.92832e-12 -3.46328e-18 -0 1.92832e-12 -0 1.92832e-12)
(1.92832e-12 -3.46328e-18 -0 1.92832e-12 -0 1.92832e-12)
(1.93315e-12 -3.47194e-18 -0 1.93315e-12 -0 1.93315e-12)
(5.79376e-11 -6.07724e-16 -0 5.79376e-11 -0 5.79376e-11)
(5.78169e-11 -6.06449e-16 -0 5.78169e-11 -0 5.78169e-11)
(5.78169e-11 -6.06449e-16 -0 5.78169e-11 -0 5.78169e-11)
(5.79619e-11 -6.07979e-16 -0 5.79619e-11 -0 5.79619e-11)
(4.1612e-10 -1.30239e-14 -0 4.1612e-10 -0 4.1612e-10)
(4.15255e-10 -1.29964e-14 -0 4.15255e-10 -0 4.15255e-10)
(4.15255e-10 -1.29964e-14 -0 4.15255e-10 -0 4.15255e-10)
(4.16294e-10 -1.30293e-14 -0 4.16294e-10 -0 4.16294e-10)
(1.53834e-09 -1.02986e-13 -0 1.53834e-09 -0 1.53834e-09)
(1.53514e-09 -1.02769e-13 -0 1.53514e-09 -0 1.53514e-09)
(1.53514e-09 -1.02769e-13 -0 1.53514e-09 -0 1.53514e-09)
(1.53898e-09 -1.03029e-13 -0 1.53898e-09 -0 1.53898e-09)
(4.04431e-09 -4.80943e-13 -0 4.04431e-09 -0 4.04431e-09)
(4.03587e-09 -4.7993e-13 -0 4.03587e-09 -0 4.03587e-09)
(4.03584e-09 -4.79927e-13 -0 4.03584e-09 -0 4.03584e-09)
(4.04597e-09 -4.81138e-13 -0 4.04597e-09 -0 4.04597e-09)
(8.68844e-09 -1.63575e-12 -0 8.68844e-09 -0 8.68844e-09)
(8.67012e-09 -1.63229e-12 -0 8.67012e-09 -0 8.67012e-09)
(8.67003e-09 -1.63228e-12 -0 8.67003e-09 -0 8.67003e-09)
(8.69189e-09 -1.63639e-12 -0 8.69189e-09 -0 8.69189e-09)
(1.63497e-08 -4.51041e-12 -0 1.63497e-08 -0 1.63497e-08)
(1.63148e-08 -4.50086e-12 -0 1.63148e-08 -0 1.63148e-08)
(1.63145e-08 -4.50078e-12 -0 1.63145e-08 -0 1.63145e-08)
(1.6356e-08 -4.51211e-12 -0 1.6356e-08 -0 1.6356e-08)
(2.80242e-08 -1.07193e-11 -0 2.80242e-08 -0 2.80242e-08)
(2.79634e-08 -1.06966e-11 -0 2.79634e-08 -0 2.79634e-08)
(2.79627e-08 -1.06963e-11 -0 2.79627e-08 -0 2.79627e-08)
(2.80344e-08 -1.07231e-11 -0 2.80344e-08 -0 2.80344e-08)
(4.48171e-08 -2.28056e-11 -0 4.48171e-08 -0 4.48171e-08)
(4.47178e-08 -2.27575e-11 -0 4.47178e-08 -0 4.47178e-08)
(4.47162e-08 -2.27567e-11 -0 4.47162e-08 -0 4.47162e-08)
(4.48325e-08 -2.28135e-11 -0 4.48325e-08 -0 4.48325e-08)
(6.7933e-08 -4.4543e-11 -0 6.7933e-08 -0 6.7933e-08)
(6.77787e-08 -4.44496e-11 -0 6.77787e-08 -0 6.77787e-08)
(6.77755e-08 -4.44475e-11 -0 6.77755e-08 -0 6.77755e-08)
(6.79549e-08 -4.45583e-11 -0 6.79549e-08 -0 6.79549e-08)
(9.86632e-08 -8.12993e-11 -0 9.86632e-08 -0 9.86632e-08)
(9.84323e-08 -8.11279e-11 -0 9.84323e-08 -0 9.84323e-08)
(9.84263e-08 -8.11226e-11 -0 9.84263e-08 -0 9.84263e-08)
(9.86929e-08 -8.13282e-11 -0 9.86929e-08 -0 9.86929e-08)
(1.38367e-07 -1.40509e-10 -0 1.38367e-07 -0 1.38367e-07)
(1.38031e-07 -1.40202e-10 -0 1.38031e-07 -0 1.38031e-07)
(1.38021e-07 -1.40189e-10 -0 1.38021e-07 -0 1.38021e-07)
(1.38405e-07 -1.40563e-10 -0 1.38405e-07 -0 1.38405e-07)
(1.88441e-07 -2.32331e-10 -0 1.88441e-07 -0 1.88441e-07)
(1.87965e-07 -2.31778e-10 -0 1.87965e-07 -0 1.87965e-07)
(1.87947e-07 -2.3175e-10 -0 1.87947e-07 -0 1.87947e-07)
(1.88486e-07 -2.32429e-10 -0 1.88486e-07 -0 1.88486e-07)
(2.50275e-07 -3.70598e-10 -0 2.50275e-07 -0 2.50275e-07)
(2.49617e-07 -3.69575e-10 -0 2.49617e-07 -0 2.49617e-07)
(2.49587e-07 -3.69514e-10 -0 2.49587e-07 -0 2.49587e-07)
(2.50326e-07 -3.70769e-10 -0 2.50326e-07 -0 2.50326e-07)
(3.25188e-07 -5.74151e-10 -0 3.25188e-07 -0 3.25188e-07)
(3.24296e-07 -5.72212e-10 -0 3.24296e-07 -0 3.24296e-07)
(3.24251e-07 -5.72083e-10 -0 3.24251e-07 -0 3.24251e-07)
(3.2524e-07 -5.74421e-10 -0 3.2524e-07 -0 3.2524e-07)
(4.14341e-07 -8.68619e-10 -0 4.14341e-07 -0 4.14341e-07)
(4.13161e-07 -8.64918e-10 -0 4.13161e-07 -0 4.13161e-07)
(4.13093e-07 -8.6465e-10 -0 4.13093e-07 -0 4.13093e-07)
(4.14387e-07 -8.68992e-10 -0 4.14387e-07 -0 4.14387e-07)
(5.18633e-07 -1.28862e-09 -0 5.18633e-07 -0 5.18633e-07)
(5.1711e-07 -1.28164e-09 -0 5.1711e-07 -0 5.1711e-07)
(5.17012e-07 -1.28111e-09 -0 5.17012e-07 -0 5.17012e-07)
(5.18661e-07 -1.28902e-09 -0 5.18661e-07 -0 5.18661e-07)
(6.38587e-07 -1.88019e-09 -0 6.38587e-07 -0 6.38587e-07)
(6.36673e-07 -1.86737e-09 -0 6.36673e-07 -0 6.36673e-07)
(6.36538e-07 -1.86633e-09 -0 6.36538e-07 -0 6.36538e-07)
(6.38585e-07 -1.88035e-09 -0 6.38585e-07 -0 6.38585e-07)
(7.7425e-07 -2.70287e-09 -0 7.7425e-07 -0 7.7425e-07)
(7.71901e-07 -2.68011e-09 -0 7.71901e-07 -0 7.71901e-07)
(7.7172e-07 -2.67819e-09 -0 7.7172e-07 -0 7.7172e-07)
(7.74202e-07 -2.70214e-09 -0 7.74202e-07 -0 7.74202e-07)
(9.25085e-07 -3.83038e-09 -0 9.25085e-07 -0 9.25085e-07)
(9.22274e-07 -3.79161e-09 -0 9.22274e-07 -0 9.22274e-07)
(9.22042e-07 -3.78819e-09 -0 9.22042e-07 -0 9.22042e-07)
(9.24975e-07 -3.82754e-09 -0 9.24975e-07 -0 9.24975e-07)
(1.08992e-06 -5.34794e-09 -0 1.08992e-06 -0 1.08992e-06)
(1.08665e-06 -5.28485e-09 -0 1.08665e-06 -0 1.08665e-06)
(1.08636e-06 -5.279e-09 -0 1.08636e-06 -0 1.08636e-06)
(1.08974e-06 -5.34086e-09 -0 1.08974e-06 -0 1.08974e-06)
(1.26696e-06 -7.34365e-09 -0 1.26696e-06 -0 1.26696e-06)
(1.26325e-06 -7.24608e-09 -0 1.26325e-06 -0 1.26325e-06)
(1.2629e-06 -7.23655e-09 -0 1.2629e-06 -0 1.2629e-06)
(1.2667e-06 -7.3291e-09 -0 1.2667e-06 -0 1.2667e-06)
(1.45382e-06 -9.89139e-09 -0 1.45382e-06 -0 1.45382e-06)
(1.44972e-06 -9.74886e-09 -0 1.44972e-06 -0 1.44972e-06)
(1.44931e-06 -9.73411e-09 -0 1.44931e-06 -0 1.44931e-06)
(1.45347e-06 -9.86514e-09 -0 1.45347e-06 -0 1.45347e-06)
(1.64764e-06 -1.3025e-08 -0 1.64764e-06 -0 1.64764e-06)
(1.64321e-06 -1.28295e-08 -0 1.64321e-06 -0 1.64321e-06)
(1.64275e-06 -1.2808e-08 -0 1.64275e-06 -0 1.64275e-06)
(1.64721e-06 -1.29824e-08 -0 1.64721e-06 -0 1.64721e-06)
(1.84522e-06 -1.67083e-08 -0 1.84522e-06 -0 1.84522e-06)
(1.84053e-06 -1.64585e-08 -0 1.84053e-06 -0 1.84053e-06)
(1.84003e-06 -1.64292e-08 -0 1.84003e-06 -0 1.84003e-06)
(1.84472e-06 -1.66456e-08 -0 1.84472e-06 -0 1.84472e-06)
(2.04319e-06 -2.08143e-08 -0 2.04319e-06 -0 2.04319e-06)
(2.03834e-06 -2.05187e-08 -0 2.03834e-06 -0 2.03834e-06)
(2.0378e-06 -2.04814e-08 -0 2.0378e-06 -0 2.0378e-06)
(2.04264e-06 -2.07304e-08 -0 2.04264e-06 -0 2.04264e-06)
(2.2382e-06 -2.51267e-08 -0 2.2382e-06 -0 2.2382e-06)
(2.23325e-06 -2.48045e-08 -0 2.23325e-06 -0 2.23325e-06)
(2.23269e-06 -2.47607e-08 -0 2.23269e-06 -0 2.23269e-06)
(2.23761e-06 -2.50243e-08 -0 2.23761e-06 -0 2.23761e-06)
(2.42702e-06 -2.93737e-08 -0 2.42702e-06 -0 2.42702e-06)
(2.42204e-06 -2.90515e-08 -0 2.42204e-06 -0 2.42204e-06)
(2.42147e-06 -2.90039e-08 -0 2.42147e-06 -0 2.42147e-06)
(2.42641e-06 -2.92596e-08 -0 2.42641e-06 -0 2.42641e-06)
(2.60673e-06 -3.3283e-08 -0 2.60673e-06 -0 2.60673e-06)
(2.60178e-06 -3.29881e-08 -0 2.60178e-06 -0 2.60178e-06)
(2.6012e-06 -3.29404e-08 -0 2.6012e-06 -0 2.6012e-06)
(2.60613e-06 -3.31663e-08 -0 2.60613e-06 -0 2.60613e-06)
(2.77478e-06 -3.66344e-08 -0 2.77478e-06 -0 2.77478e-06)
(2.76988e-06 -3.63888e-08 -0 2.76988e-06 -0 2.76988e-06)
(2.76932e-06 -3.63442e-08 -0 2.76932e-06 -0 2.76932e-06)
(2.77419e-06 -3.65243e-08 -0 2.77419e-06 -0 2.77419e-06)
(2.92905e-06 -3.929e-08 -0 2.92905e-06 -0 2.92905e-06)
(2.92423e-06 -3.91061e-08 -0 2.92423e-06 -0 2.92423e-06)
(2.92368e-06 -3.90674e-08 -0 2.92368e-06 -0 2.92368e-06)
(2.92848e-06 -3.91935e-08 -0 2.92848e-06 -0 2.92848e-06)
(3.06788e-06 -4.11947e-08 -0 3.06788e-06 -0 3.06788e-06)
(3.06316e-06 -4.10757e-08 -0 3.06316e-06 -0 3.06316e-06)
(3.06262e-06 -4.10441e-08 -0 3.06262e-06 -0 3.06262e-06)
(3.06734e-06 -4.11159e-08 -0 3.06734e-06 -0 3.06734e-06)
(3.19009e-06 -4.23578e-08 -0 3.19009e-06 -0 3.19009e-06)
(3.18546e-06 -4.22998e-08 -0 3.18546e-06 -0 3.18546e-06)
(3.18494e-06 -4.22754e-08 -0 3.18494e-06 -0 3.18494e-06)
(3.18957e-06 -4.22972e-08 -0 3.18957e-06 -0 3.18957e-06)
(3.29494e-06 -4.28289e-08 -0 3.29494e-06 -0 3.29494e-06)
(3.2904e-06 -4.28227e-08 -0 3.2904e-06 -0 3.2904e-06)
(3.2899e-06 -4.28056e-08 -0 3.2899e-06 -0 3.2899e-06)
(3.29445e-06 -4.2785e-08 -0 3.29445e-06 -0 3.29445e-06)
(3.38211e-06 -4.26758e-08 -0 3.38211e-06 -0 3.38211e-06)
(3.37765e-06 -4.27096e-08 -0 3.37765e-06 -0 3.37765e-06)
(3.37717e-06 -4.26997e-08 -0 3.37717e-06 -0 3.37717e-06)
(3.38163e-06 -4.2646e-08 -0 3.38163e-06 -0 3.38163e-06)
(3.45167e-06 -4.19696e-08 -0 3.45167e-06 -0 3.45167e-06)
(3.44729e-06 -4.20327e-08 -0 3.44729e-06 -0 3.44729e-06)
(3.44683e-06 -4.20292e-08 -0 3.44683e-06 -0 3.44683e-06)
(3.45121e-06 -4.19511e-08 -0 3.45121e-06 -0 3.45121e-06)
(3.50404e-06 -4.07783e-08 -0 3.50404e-06 -0 3.50404e-06)
(3.49974e-06 -4.08608e-08 -0 3.49974e-06 -0 3.49974e-06)
(3.49928e-06 -4.08616e-08 -0 3.49928e-06 -0 3.49928e-06)
(3.50359e-06 -4.07683e-08 -0 3.50359e-06 -0 3.50359e-06)
(3.53995e-06 -3.91631e-08 -0 3.53995e-06 -0 3.53995e-06)
(3.53571e-06 -3.92566e-08 -0 3.53571e-06 -0 3.53571e-06)
(3.53526e-06 -3.92606e-08 -0 3.53526e-06 -0 3.53526e-06)
(3.5395e-06 -3.91593e-08 -0 3.5395e-06 -0 3.5395e-06)
(3.56037e-06 -3.71756e-08 -0 3.56037e-06 -0 3.56037e-06)
(3.55621e-06 -3.72765e-08 -0 3.55621e-06 -0 3.55621e-06)
(3.55577e-06 -3.72826e-08 -0 3.55577e-06 -0 3.55577e-06)
(3.55994e-06 -3.71761e-08 -0 3.55994e-06 -0 3.55994e-06)
(3.56656e-06 -3.48665e-08 -0 3.56656e-06 -0 3.56656e-06)
(3.56247e-06 -3.49708e-08 -0 3.56247e-06 -0 3.56247e-06)
(3.56204e-06 -3.49781e-08 -0 3.56204e-06 -0 3.56204e-06)
(3.56613e-06 -3.48698e-08 -0 3.56613e-06 -0 3.56613e-06)
(3.55995e-06 -3.22803e-08 -0 3.55995e-06 -0 3.55995e-06)
(3.55593e-06 -3.23846e-08 -0 3.55593e-06 -0 3.55593e-06)
(3.55551e-06 -3.23926e-08 -0 3.55551e-06 -0 3.55551e-06)
(3.55952e-06 -3.22853e-08 -0 3.55952e-06 -0 3.55952e-06)
(3.54214e-06 -2.94568e-08 -0 3.54214e-06 -0 3.54214e-06)
(3.53821e-06 -2.95581e-08 -0 3.53821e-06 -0 3.53821e-06)
(3.53779e-06 -2.95663e-08 -0 3.53779e-06 -0 3.53779e-06)
(3.54172e-06 -2.94625e-08 -0 3.54172e-06 -0 3.54172e-06)
(3.51491e-06 -2.64315e-08 -0 3.51491e-06 -0 3.51491e-06)
(3.51106e-06 -2.65274e-08 -0 3.51106e-06 -0 3.51106e-06)
(3.51064e-06 -2.65354e-08 -0 3.51064e-06 -0 3.51064e-06)
(3.5145e-06 -2.64375e-08 -0 3.5145e-06 -0 3.5145e-06)
(3.48016e-06 -2.32358e-08 -0 3.48016e-06 -0 3.48016e-06)
(3.47638e-06 -2.33241e-08 -0 3.47638e-06 -0 3.47638e-06)
(3.47597e-06 -2.33316e-08 -0 3.47597e-06 -0 3.47597e-06)
(3.47976e-06 -2.32416e-08 -0 3.47976e-06 -0 3.47976e-06)
(3.4399e-06 -1.98964e-08 -0 3.4399e-06 -0 3.4399e-06)
(3.43618e-06 -1.99751e-08 -0 3.43619e-06 -0 3.43619e-06)
(3.43577e-06 -1.99819e-08 -0 3.43577e-06 -0 3.43577e-06)
(3.43951e-06 -1.99018e-08 -0 3.43951e-06 -0 3.43951e-06)
(3.39625e-06 -1.64352e-08 -0 3.39625e-06 -0 3.39625e-06)
(3.39258e-06 -1.65026e-08 -0 3.39258e-06 -0 3.39258e-06)
(3.39216e-06 -1.65085e-08 -0 3.39216e-06 -0 3.39216e-06)
(3.39587e-06 -1.64403e-08 -0 3.39587e-06 -0 3.39587e-06)
(3.35145e-06 -1.28694e-08 -0 3.35145e-06 -0 3.35145e-06)
(3.34777e-06 -1.29238e-08 -0 3.34777e-06 -0 3.34777e-06)
(3.34735e-06 -1.29288e-08 -0 3.34735e-06 -0 3.34735e-06)
(3.35107e-06 -1.2874e-08 -0 3.35107e-06 -0 3.35107e-06)
(3.30782e-06 -9.21071e-09 -0 3.30782e-06 -0 3.30782e-06)
(3.30406e-06 -9.25095e-09 -0 3.30406e-06 -0 3.30406e-06)
(3.30361e-06 -9.25483e-09 -0 3.30361e-06 -0 3.30361e-06)
(3.3074e-06 -9.21497e-09 -0 3.3074e-06 -0 3.3074e-06)
(3.26783e-06 -5.46642e-09 -0 3.26783e-06 -0 3.26783e-06)
(3.26382e-06 -5.49153e-09 -0 3.26382e-06 -0 3.26382e-06)
(3.26334e-06 -5.49412e-09 -0 3.26334e-06 -0 3.26334e-06)
(3.26727e-06 -5.47022e-09 -0 3.26727e-06 -0 3.26727e-06)
(3.2341e-06 -1.78457e-09 -0 3.2341e-06 -0 3.2341e-06)
(3.22949e-06 -1.79367e-09 -0 3.22949e-06 -0 3.22949e-06)
(3.22904e-06 -1.79462e-09 -0 3.22904e-06 -0 3.22904e-06)
(3.23312e-06 -1.78678e-09 -0 3.23312e-06 -0 3.23312e-06)
)
;

boundaryField
{
    inlet
    {
        type            cyclic;
    }
    outlet
    {
        type            cyclic;
    }
    fixedWalls-bottom
    {
        type            kqRWallFunction;
        value           nonuniform List<symmTensor> 4((1.93234e-12 -0 -0 1.93234e-12 -0 1.93234e-12) (1.92832e-12 -0 -0 1.92832e-12 -0 1.92832e-12) (1.92832e-12 -0 -0 1.92832e-12 -0 1.92832e-12) (1.93315e-12 -0 -0 1.93315e-12 -0 1.93315e-12));
    }
    fixedWalls-top
    {
        type            symmetry;
    }
    frontAndBack
    {
        type            empty;
    }
}


// ************************************************************************* //
