/*--------------------------------*- C++ -*----------------------------------*\
  =========                 |
  \\      /  F ield         | OpenFOAM: The Open Source CFD Toolbox
   \\    /   O peration     | Website:  https://openfoam.org
    \\  /    A nd           | Version:  10
     \\/     M anipulation  |
\*---------------------------------------------------------------------------*/
FoamFile
{
    format      ascii;
    class       volVectorField;
    location    "125";
    object      U;
}
// * * * * * * * * * * * * * * * * * * * * * * * * * * * * * * * * * * * * * //

dimensions      [0 1 -1 0 0 0 0];

internalField   nonuniform List<vector> 
200
(
(0.0376025 8.88019e-09 0)
(0.0376028 -6.39666e-09 0)
(0.0376028 5.95667e-09 0)
(0.0376026 6.10784e-09 0)
(0.113186 -3.48678e-08 0)
(0.113186 -4.27667e-08 0)
(0.113186 4.0857e-08 0)
(0.113186 4.37627e-08 0)
(0.190193 -7.8613e-08 0)
(0.190194 -1.03289e-07 0)
(0.190194 9.4446e-08 0)
(0.190193 1.02212e-07 0)
(0.268618 -1.47619e-07 0)
(0.268619 -1.78514e-07 0)
(0.268619 1.59918e-07 0)
(0.268618 1.76458e-07 0)
(0.348451 -2.17022e-07 0)
(0.348452 -2.60765e-07 0)
(0.348452 2.29525e-07 0)
(0.348451 2.57936e-07 0)
(0.42968 -2.84267e-07 0)
(0.429681 -3.43616e-07 0)
(0.429681 2.97404e-07 0)
(0.42968 3.40141e-07 0)
(0.51229 -3.45795e-07 0)
(0.512291 -4.22151e-07 0)
(0.512291 3.59189e-07 0)
(0.51229 4.18011e-07 0)
(0.596262 -3.97882e-07 0)
(0.596263 -4.92114e-07 0)
(0.596263 4.11233e-07 0)
(0.596262 4.87438e-07 0)
(0.681574 -4.37507e-07 0)
(0.681574 -5.50337e-07 0)
(0.681574 4.50934e-07 0)
(0.681574 5.45197e-07 0)
(0.768199 -4.62783e-07 0)
(0.7682 -5.94184e-07 0)
(0.7682 4.76247e-07 0)
(0.7682 5.88749e-07 0)
(0.856109 -4.72599e-07 0)
(0.856109 -6.22112e-07 0)
(0.856109 4.86128e-07 0)
(0.856109 6.16443e-07 0)
(0.945266 -4.6639e-07 0)
(0.945266 -6.32821e-07 0)
(0.945266 4.79883e-07 0)
(0.945267 6.2708e-07 0)
(1.03563 -4.44232e-07 0)
(1.03563 -6.26e-07 0)
(1.03563 4.57672e-07 0)
(1.03563 6.20261e-07 0)
(1.12717 -4.06572e-07 0)
(1.12716 -6.01475e-07 0)
(1.12716 4.19876e-07 0)
(1.12717 5.959e-07 0)
(1.21981 -3.54371e-07 0)
(1.21981 -5.59905e-07 0)
(1.21981 3.67517e-07 0)
(1.21981 5.54559e-07 0)
(1.31352 -2.88844e-07 0)
(1.31352 -5.01961e-07 0)
(1.31352 3.01774e-07 0)
(1.31352 4.96969e-07 0)
(1.40822 -2.11584e-07 0)
(1.40822 -4.28993e-07 0)
(1.40822 2.2425e-07 0)
(1.40822 4.24385e-07 0)
(1.50385 -1.24276e-07 0)
(1.50385 -3.42282e-07 0)
(1.50385 1.36635e-07 0)
(1.50385 3.38139e-07 0)
(1.60033 -2.88149e-08 0)
(1.60033 -2.43595e-07 0)
(1.60033 4.08271e-08 0)
(1.60033 2.39925e-07 0)
(1.69758 7.28392e-08 0)
(1.69758 -1.34647e-07 0)
(1.69758 -6.11964e-08 0)
(1.69758 1.31495e-07 0)
(1.79551 1.78667e-07 0)
(1.79551 -1.74616e-08 0)
(1.79551 -1.67442e-07 0)
(1.79551 1.48153e-08 0)
(1.89402 2.86665e-07 0)
(1.89402 1.06026e-07 0)
(1.89402 -2.75866e-07 0)
(1.89402 -1.0815e-07 0)
(1.99299 3.94895e-07 0)
(1.99299 2.33726e-07 0)
(1.99299 -3.84544e-07 0)
(1.99299 -2.3534e-07 0)
(2.09232 5.01442e-07 0)
(2.09231 3.63599e-07 0)
(2.09231 -4.91535e-07 0)
(2.09232 -3.64702e-07 0)
(2.19185 6.04584e-07 0)
(2.19185 4.93609e-07 0)
(2.19185 -5.95126e-07 0)
(2.19185 -4.94203e-07 0)
(2.29147 7.02609e-07 0)
(2.29147 6.21744e-07 0)
(2.29147 -6.93592e-07 0)
(2.29147 -6.21843e-07 0)
(2.39101 7.94104e-07 0)
(2.391 7.4613e-07 0)
(2.391 -7.85521e-07 0)
(2.39101 -7.45737e-07 0)
(2.4903 8.77649e-07 0)
(2.4903 8.64897e-07 0)
(2.4903 -8.69496e-07 0)
(2.4903 -8.64046e-07 0)
(2.58916 9.52196e-07 0)
(2.58916 9.76421e-07 0)
(2.58916 -9.44457e-07 0)
(2.58916 -9.75121e-07 0)
(2.68741 1.01667e-06 0)
(2.68741 1.07906e-06 0)
(2.68741 -1.00935e-06 0)
(2.68741 -1.07736e-06 0)
(2.78482 1.07039e-06 0)
(2.78482 1.17149e-06 0)
(2.78482 -1.06346e-06 0)
(2.78482 -1.16942e-06 0)
(2.88117 1.11263e-06 0)
(2.88117 1.25234e-06 0)
(2.88117 -1.10611e-06 0)
(2.88117 -1.24997e-06 0)
(2.97621 1.14303e-06 0)
(2.97621 1.32063e-06 0)
(2.97621 -1.13688e-06 0)
(2.97621 -1.31798e-06 0)
(3.06967 1.16112e-06 0)
(3.06967 1.37526e-06 0)
(3.06967 -1.15537e-06 0)
(3.06967 -1.37241e-06 0)
(3.16127 1.1667e-06 0)
(3.16127 1.41549e-06 0)
(3.16127 -1.16131e-06 0)
(3.16127 -1.41246e-06 0)
(3.2507 1.15936e-06 0)
(3.2507 1.44041e-06 0)
(3.2507 -1.15435e-06 0)
(3.2507 -1.4373e-06 0)
(3.33763 1.13871e-06 0)
(3.33763 1.44933e-06 0)
(3.33763 -1.13405e-06 0)
(3.33763 -1.44615e-06 0)
(3.4217 1.10397e-06 0)
(3.4217 1.44125e-06 0)
(3.4217 -1.09967e-06 0)
(3.4217 -1.4381e-06 0)
(3.50252 1.05392e-06 0)
(3.50252 1.41501e-06 0)
(3.50252 -1.04997e-06 0)
(3.50251 -1.41191e-06 0)
(3.57967 9.86627e-07 0)
(3.57967 1.36887e-06 0)
(3.57967 -9.83015e-07 0)
(3.57967 -1.3659e-06 0)
(3.65273 8.99095e-07 0)
(3.65273 1.30019e-06 0)
(3.65273 -8.95826e-07 0)
(3.65273 -1.29736e-06 0)
(3.7212 7.87341e-07 0)
(3.7212 1.20518e-06 0)
(3.7212 -7.84414e-07 0)
(3.7212 -1.20259e-06 0)
(3.78458 6.46381e-07 0)
(3.78459 1.07817e-06 0)
(3.78459 -6.43813e-07 0)
(3.78458 -1.07583e-06 0)
(3.84233 4.71916e-07 0)
(3.84233 9.12256e-07 0)
(3.84233 -4.69762e-07 0)
(3.84233 -9.10271e-07 0)
(3.89384 2.63442e-07 0)
(3.89384 7.00164e-07 0)
(3.89384 -2.6178e-07 0)
(3.89384 -6.98626e-07 0)
(3.93849 3.2511e-08 0)
(3.93849 4.42156e-07 0)
(3.93849 -3.1194e-08 0)
(3.93849 -4.41101e-07 0)
(3.97561 -1.85311e-07 0)
(3.97561 1.60668e-07 0)
(3.97561 1.86133e-07 0)
(3.97561 -1.60008e-07 0)
(4.00447 -3.16371e-07 0)
(4.00447 -6.99299e-08 0)
(4.00447 3.16557e-07 0)
(4.00447 7.01349e-08 0)
(4.02429 -2.84334e-07 0)
(4.02429 -1.40903e-07 0)
(4.02429 2.84853e-07 0)
(4.02429 1.41573e-07 0)
(4.03424 -8.69903e-08 0)
(4.03424 -3.45043e-08 0)
(4.03424 8.63103e-08 0)
(4.03424 3.39904e-08 0)
)
;

boundaryField
{
    inlet
    {
        type            cyclic;
    }
    outlet
    {
        type            cyclic;
    }
    fixedWalls-bottom
    {
        type            noSlip;
    }
    fixedWalls-top
    {
        type            symmetry;
    }
    frontAndBack
    {
        type            empty;
    }
}


// ************************************************************************* //
