/*--------------------------------*- C++ -*----------------------------------*\
  =========                 |
  \\      /  F ield         | OpenFOAM: The Open Source CFD Toolbox
   \\    /   O peration     | Website:  https://openfoam.org
    \\  /    A nd           | Version:  10
     \\/     M anipulation  |
\*---------------------------------------------------------------------------*/
FoamFile
{
    format      ascii;
    class       volScalarField;
    location    "1842";
    object      k;
}
// * * * * * * * * * * * * * * * * * * * * * * * * * * * * * * * * * * * * * //

dimensions      [0 2 -2 0 0 0 0];

internalField   nonuniform List<scalar> 
400
(
7.1472e-09
7.12948e-09
7.11904e-09
7.13508e-09
2.14439e-07
2.13907e-07
2.13594e-07
2.14075e-07
1.51863e-06
1.51487e-06
1.51265e-06
1.51605e-06
5.52113e-06
5.50747e-06
5.49939e-06
5.51179e-06
1.42868e-05
1.42515e-05
1.42306e-05
1.42627e-05
3.02606e-05
3.01858e-05
3.01414e-05
3.02094e-05
5.62484e-05
5.61094e-05
5.60268e-05
5.61532e-05
9.54182e-05
9.51825e-05
9.50417e-05
9.52562e-05
0.000151307
0.000150934
0.000150709
0.000151049
0.00022783
0.000227269
0.000226929
0.00022744
0.000329282
0.000328473
0.000327977
0.000328714
0.000460331
0.000459206
0.000458506
0.000459532
0.000625993
0.000624476
0.000623511
0.000624897
0.000831579
0.000829587
0.000828287
0.000830111
0.00108261
0.00108006
0.00107834
0.00108068
0.00138467
0.00138148
0.00137924
0.00138219
0.00174324
0.00173933
0.00173647
0.0017401
0.00216341
0.00215873
0.00215512
0.00215952
0.00264959
0.00264411
0.00263962
0.00264484
0.00320506
0.00319879
0.00319329
0.00319937
0.00383155
0.00382455
0.00381791
0.00382488
0.00452867
0.00452108
0.00451317
0.00452099
0.00529334
0.00528537
0.00527612
0.00528471
0.00611926
0.0061112
0.0061006
0.00610978
0.00699641
0.00698867
0.0069768
0.00698626
0.00791087
0.00790391
0.00789099
0.00790027
0.00884485
0.0088392
0.00882565
0.00883407
0.00977743
0.00977362
0.00976004
0.00976674
0.010695
0.0106931
0.0106798
0.0106845
0.0115954
0.0115953
0.0115822
0.0115851
0.0124733
0.0124751
0.0124624
0.0124633
0.0133211
0.0133247
0.0133127
0.0133113
0.0141316
0.0141373
0.0141261
0.0141221
0.0148991
0.0149067
0.0148965
0.0148896
0.0156183
0.0156279
0.0156188
0.0156089
0.0162853
0.0162969
0.0162888
0.0162757
0.0168967
0.0169104
0.0169032
0.0168868
0.0174497
0.0174655
0.017459
0.0174393
0.0179423
0.0179601
0.0179543
0.0179313
0.0183731
0.0183928
0.0183876
0.0183612
0.0187412
0.0187627
0.018758
0.0187284
0.0190464
0.0190696
0.0190654
0.0190326
0.0192891
0.0193138
0.0193099
0.0192743
0.0194703
0.0194962
0.0194927
0.0194545
0.0195917
0.0196186
0.0196155
0.019575
0.0196556
0.0196832
0.0196804
0.0196383
0.0196642
0.0196923
0.01969
0.0196466
0.0196203
0.0196487
0.0196467
0.0196027
0.0195264
0.0195548
0.0195532
0.0195091
0.0193846
0.0194129
0.0194117
0.019368
0.0191973
0.0192253
0.0192245
0.0191816
0.0189661
0.0189936
0.0189932
0.0189516
0.0186924
0.0187191
0.0187192
0.0186793
0.0183772
0.0184028
0.0184035
0.0183654
0.0180207
0.0180452
0.0180464
0.0180104
0.0176232
0.0176463
0.0176481
0.0176141
0.0171841
0.0172058
0.0172081
0.0171762
0.016703
0.0167232
0.0167259
0.016696
0.016179
0.0161977
0.0162008
0.0161728
0.0156112
0.0156285
0.0156317
0.0156056
0.0149987
0.0150145
0.0150179
0.0149934
0.0143405
0.0143549
0.0143582
0.0143353
0.0136357
0.0136487
0.0136519
0.0136304
0.0128837
0.0128952
0.0128983
0.0128782
0.0120839
0.0120939
0.012097
0.0120781
0.0112366
0.0112449
0.011248
0.0112305
0.0103416
0.0103482
0.0103515
0.0103353
0.00938734
0.00939166
0.00939494
0.00937909
0.00836586
0.00836735
0.00837088
0.00835552
0.00730387
0.00730233
0.00730676
0.00729358
0.00625392
0.00624965
0.0062553
0.00624498
0.00526245
0.00525633
0.00526288
0.00525537
0.00435722
0.00435017
0.0043571
0.00435204
0.00355324
0.00354609
0.0035529
0.00354985
0.00285656
0.00284989
0.00285619
0.00285468
0.00226588
0.00225998
0.00226555
0.00226516
0.00177464
0.0017696
0.00177433
0.00177473
0.00137316
0.00136894
0.00137284
0.00137374
0.00105027
0.0010468
0.00104992
0.0010511
0.000794453
0.000791653
0.000794072
0.000795346
0.000594591
0.000592368
0.000594193
0.000595441
0.000440488
0.000438753
0.000440089
0.000441232
0.000323131
0.000321801
0.000322752
0.000323744
0.000234812
0.000233812
0.000234466
0.00023529
0.000169093
0.000168358
0.000168791
0.00016945
0.000120716
0.000120187
0.000120463
0.000120971
8.54698e-05
8.50984e-05
8.52679e-05
8.56426e-05
6.0041e-05
5.97866e-05
5.98866e-05
6.01522e-05
4.18661e-05
4.16963e-05
4.17523e-05
4.19339e-05
2.89911e-05
2.88808e-05
2.891e-05
2.903e-05
1.99476e-05
1.98778e-05
1.98913e-05
1.9968e-05
1.36461e-05
1.36031e-05
1.36081e-05
1.36555e-05
9.28924e-06
9.26352e-06
9.264e-06
9.29248e-06
6.29999e-06
6.28502e-06
6.28322e-06
6.30008e-06
4.26617e-06
4.2575e-06
4.25483e-06
4.26463e-06
2.89679e-06
2.89181e-06
2.88905e-06
2.89458e-06
1.98995e-06
1.98713e-06
1.98463e-06
1.98763e-06
1.40866e-06
1.40709e-06
1.40495e-06
1.4065e-06
1.06374e-06
1.06284e-06
1.06103e-06
1.06182e-06
9.02525e-07
9.01928e-07
9.00328e-07
9.00789e-07
)
;

boundaryField
{
    inlet
    {
        type            cyclic;
    }
    outlet
    {
        type            cyclic;
    }
    fixedWalls-bottom
    {
        type            kqRWallFunction;
        value           nonuniform List<scalar> 4(7.1472e-09 7.12948e-09 7.11904e-09 7.13508e-09);
    }
    fixedWalls-top
    {
        type            symmetry;
    }
    frontAndBack
    {
        type            empty;
    }
}


// ************************************************************************* //
