/*--------------------------------*- C++ -*----------------------------------*\
  =========                 |
  \\      /  F ield         | OpenFOAM: The Open Source CFD Toolbox
   \\    /   O peration     | Website:  https://openfoam.org
    \\  /    A nd           | Version:  10
     \\/     M anipulation  |
\*---------------------------------------------------------------------------*/
FoamFile
{
    format      ascii;
    class       volScalarField;
    location    "1842";
    object      omega;
}
// * * * * * * * * * * * * * * * * * * * * * * * * * * * * * * * * * * * * * //

dimensions      [0 0 -1 0 0 0 0];

internalField   nonuniform List<scalar> 
400
(
86589.6
86589.6
86589.6
86589.6
14810.2
14810.2
14810.2
14810.2
4981.56
4981.59
4981.58
4981.58
2340.07
2340.09
2340.07
2340.07
1323.63
1323.64
1323.63
1323.62
839.713
839.724
839.705
839.698
575.226
575.24
575.217
575.206
416.129
416.148
416.12
416.104
313.458
313.485
313.453
313.431
243.533
243.569
243.533
243.503
193.819
193.864
193.825
193.788
157.197
157.254
157.212
157.167
129.393
129.461
129.418
129.364
107.719
107.799
107.756
107.694
90.429
90.5195
90.4779
90.4089
76.35
76.4506
76.4113
76.3367
64.6818
64.7905
64.7548
64.6765
54.8684
54.9825
54.9513
54.8719
46.5172
46.6356
46.6097
46.5297
39.352
39.4726
39.4528
39.373
33.1753
33.2955
33.283
33.2032
27.844
27.961
27.9568
27.8766
23.2522
23.363
23.3687
23.2869
19.3187
19.4199
19.4357
19.3525
15.9751
16.0642
16.0901
16.0056
13.152
13.2282
13.2629
13.1784
10.7855
10.8485
10.8902
10.8072
8.82021
8.87095
8.91717
8.83751
7.20418
7.24406
7.29219
7.21752
5.88834
5.91917
5.96663
5.89831
4.82678
4.85057
4.895
4.83401
3.97721
3.99598
4.03535
3.98231
3.3013
3.31704
3.34967
3.30487
2.7649
2.7795
2.80412
2.7676
2.33811
2.35336
2.36907
2.34074
1.99503
2.01278
2.01904
1.99867
1.71526
1.73048
1.73421
1.72107
1.49625
1.50606
1.51423
1.50544
1.33312
1.33967
1.34936
1.34884
1.2217
1.22599
1.23456
1.24568
1.15905
1.16122
1.17095
1.19047
1.14376
1.14433
1.15575
1.18436
1.17971
1.17896
1.19223
1.23329
1.26814
1.2665
1.28188
1.33275
1.39515
1.39358
1.41012
1.46891
1.54215
1.542
1.55837
1.62253
1.69616
1.6987
1.71377
1.78192
1.8498
1.85467
1.86865
1.93924
1.99723
2.00317
2.01702
2.08791
2.13268
2.13795
2.15289
2.22128
2.24945
2.25311
2.26924
2.33322
2.34557
2.34792
2.36469
2.42337
2.42087
2.42238
2.43882
2.49132
2.47612
2.47739
2.49268
2.53911
2.51456
2.51591
2.52951
2.57033
2.54108
2.54259
2.55444
2.59092
2.56322
2.56497
2.57578
2.60933
2.5897
2.59157
2.60147
2.63036
2.62244
2.62468
2.63376
2.65957
2.66126
2.66409
2.67296
2.69731
2.71557
2.71885
2.72818
2.75265
2.79644
2.79985
2.81018
2.83614
2.89923
2.90286
2.91414
2.94197
3.03204
3.03611
3.04895
3.08017
3.22289
3.22763
3.24279
3.27952
3.4975
3.50319
3.52105
3.56514
3.94468
3.95202
3.97136
4.02411
4.77554
4.78737
4.80237
4.8611
6.14767
6.17204
6.17686
6.23133
7.98327
8.03787
8.01928
8.0584
10.0008
10.1011
10.0351
10.0688
12.0228
12.1509
12.0512
12.0805
13.9902
14.1324
14.0054
14.0305
15.884
16.0289
15.8794
15.9002
17.6936
17.831
17.6644
17.6811
19.4057
19.5304
19.3525
19.3657
21.0364
21.1461
20.9568
20.9658
22.6027
22.6944
22.4961
22.5006
24.0935
24.1641
23.9629
23.9631
25.4986
25.5487
25.3465
25.3422
26.8157
26.8466
26.6449
26.6365
28.0416
28.0552
27.8564
27.8446
29.1831
29.1819
28.9875
28.9733
30.2361
30.2212
30.0353
30.0198
31.1902
31.1633
30.9902
30.9744
32.0445
32.008
31.8505
31.8349
32.7963
32.753
32.6135
32.5982
33.4426
33.396
33.2761
33.2611
33.9808
33.9346
33.835
33.8198
34.408
34.366
34.2866
34.271
34.7227
34.6885
34.628
34.612
34.925
34.9015
34.8581
34.8414
35.0173
35.0072
34.9786
34.9601
35.0063
35.0116
34.9952
34.973
34.9039
34.924
34.9181
34.8915
34.7279
34.7598
34.7626
34.7331
34.5
34.5394
34.5468
34.5186
34.2407
34.2869
34.2964
34.2695
33.9801
34.0307
34.0406
34.0168
33.7494
33.8017
33.811
33.7919
)
;

boundaryField
{
    inlet
    {
        type            cyclic;
    }
    outlet
    {
        type            cyclic;
    }
    fixedWalls-bottom
    {
        beta1           0.075;
        blended         0;
        type            omegaWallFunction;
        value           uniform 86589.6;
    }
    fixedWalls-top
    {
        type            symmetry;
    }
    frontAndBack
    {
        type            empty;
    }
}


// ************************************************************************* //
