/*--------------------------------*- C++ -*----------------------------------*\
  =========                 |
  \\      /  F ield         | OpenFOAM: The Open Source CFD Toolbox
   \\    /   O peration     | Website:  https://openfoam.org
    \\  /    A nd           | Version:  10
     \\/     M anipulation  |
\*---------------------------------------------------------------------------*/
FoamFile
{
    format      ascii;
    class       volScalarField;
    location    "1842";
    object      p;
}
// * * * * * * * * * * * * * * * * * * * * * * * * * * * * * * * * * * * * * //

dimensions      [0 2 -2 0 0 0 0];

internalField   nonuniform List<scalar> 
400
(
-1.54693e-11
-4.38262e-07
4.05138e-06
4.48921e-06
2.48488e-09
-4.2571e-07
4.04883e-06
4.47666e-06
5.2864e-09
-4.1125e-07
4.04602e-06
4.4622e-06
7.83494e-09
-3.97255e-07
4.04347e-06
4.4482e-06
1.01255e-08
-3.83587e-07
4.04119e-06
4.43453e-06
1.2188e-08
-3.69985e-07
4.03912e-06
4.42093e-06
1.39932e-08
-3.56404e-07
4.03732e-06
4.40735e-06
1.54926e-08
-3.42869e-07
4.03582e-06
4.39382e-06
1.66242e-08
-3.29407e-07
4.03469e-06
4.38035e-06
1.73199e-08
-3.16041e-07
4.03399e-06
4.36699e-06
1.74919e-08
-3.02809e-07
4.03382e-06
4.35376e-06
1.70363e-08
-2.89766e-07
4.03427e-06
4.34071e-06
1.58165e-08
-2.76996e-07
4.03549e-06
4.32794e-06
1.36602e-08
-2.64633e-07
4.03765e-06
4.31558e-06
1.03351e-08
-2.52877e-07
4.04097e-06
4.30382e-06
5.53722e-09
-2.42042e-07
4.04577e-06
4.29298e-06
-1.13892e-09
-2.32609e-07
4.05245e-06
4.28355e-06
-1.02156e-08
-2.2531e-07
4.06152e-06
4.27625e-06
-2.23979e-08
-2.21282e-07
4.07371e-06
4.27221e-06
-3.86398e-08
-2.22319e-07
4.08995e-06
4.27324e-06
-6.02405e-08
-2.31244e-07
4.11156e-06
4.28215e-06
-8.89633e-08
-2.52502e-07
4.14028e-06
4.3034e-06
-1.27146e-07
-2.92831e-07
4.17847e-06
4.34371e-06
-1.7774e-07
-3.619e-07
4.22908e-06
4.41276e-06
-2.44834e-07
-4.75306e-07
4.29617e-06
4.52615e-06
-3.35555e-07
-6.63565e-07
4.38685e-06
4.71445e-06
-4.59272e-07
-9.7481e-07
4.51046e-06
5.02581e-06
-6.05481e-07
-1.40785e-06
4.65657e-06
5.45891e-06
-6.88138e-07
-1.71724e-06
4.7393e-06
5.76815e-06
-6.85707e-07
-1.81024e-06
4.73697e-06
5.86101e-06
-6.65921e-07
-1.86052e-06
4.71721e-06
5.91124e-06
-6.45617e-07
-1.91361e-06
4.69691e-06
5.9643e-06
-6.21968e-07
-1.96174e-06
4.67327e-06
6.01241e-06
-5.92087e-07
-1.99648e-06
4.64339e-06
6.04711e-06
-5.54983e-07
-2.01501e-06
4.60629e-06
6.06561e-06
-5.09887e-07
-2.01632e-06
4.56119e-06
6.06688e-06
-4.55556e-07
-1.9997e-06
4.50685e-06
6.05022e-06
-3.90363e-07
-1.9647e-06
4.44165e-06
6.01518e-06
-3.12612e-07
-1.91115e-06
4.3639e-06
5.96161e-06
-2.20752e-07
-1.83915e-06
4.27203e-06
5.88958e-06
-1.13493e-07
-1.74914e-06
4.16476e-06
5.79955e-06
1.01321e-08
-1.64197e-06
4.04113e-06
5.69238e-06
1.50616e-07
-1.51887e-06
3.90063e-06
5.56929e-06
3.07641e-07
-1.38133e-06
3.74359e-06
5.43179e-06
4.7985e-07
-1.23112e-06
3.57136e-06
5.28162e-06
6.64954e-07
-1.07017e-06
3.38624e-06
5.12074e-06
8.59992e-07
-9.00565e-07
3.19118e-06
4.95121e-06
1.06162e-06
-7.24428e-07
2.98953e-06
4.77516e-06
1.26628e-06
-5.43851e-07
2.78486e-06
4.59467e-06
1.47027e-06
-3.60835e-07
2.58086e-06
4.41174e-06
1.66987e-06
-1.77249e-07
2.38125e-06
4.22823e-06
1.86148e-06
5.16559e-09
2.18965e-06
4.04587e-06
2.04182e-06
1.84823e-07
2.00931e-06
3.86626e-06
2.20824e-06
3.60325e-07
1.84291e-06
3.69079e-06
2.35893e-06
5.30528e-07
1.69225e-06
3.5206e-06
2.49307e-06
6.94573e-07
1.55813e-06
3.35655e-06
2.61075e-06
8.51911e-07
1.44049e-06
3.19921e-06
2.71274e-06
1.00234e-06
1.33854e-06
3.04876e-06
2.80049e-06
1.14605e-06
1.25083e-06
2.90504e-06
2.87606e-06
1.28355e-06
1.1753e-06
2.76753e-06
2.94202e-06
1.41563e-06
1.10938e-06
2.63544e-06
3.00141e-06
1.54314e-06
1.05003e-06
2.50792e-06
3.05721e-06
1.66695e-06
9.94267e-07
2.38411e-06
3.10831e-06
1.78937e-06
9.43218e-07
2.26168e-06
3.14203e-06
1.91708e-06
9.09562e-07
2.13394e-06
3.1551e-06
2.0523e-06
8.96496e-07
1.99882e-06
3.27546e-06
2.13993e-06
7.75879e-07
1.91181e-06
3.87148e-06
2.01251e-06
1.79636e-07
2.03979e-06
4.61826e-06
1.74726e-06
-5.66847e-07
2.30455e-06
4.91366e-06
1.55724e-06
-8.62137e-07
2.49393e-06
4.87277e-06
1.45184e-06
-8.21353e-07
2.59909e-06
4.72686e-06
1.40362e-06
-6.75546e-07
2.6473e-06
4.58603e-06
1.38766e-06
-5.34759e-07
2.66329e-06
4.46794e-06
1.39074e-06
-4.16685e-07
2.66022e-06
4.36933e-06
1.40468e-06
-3.18076e-07
2.6463e-06
4.28701e-06
1.42338e-06
-2.35754e-07
2.6276e-06
4.21797e-06
1.44305e-06
-1.66713e-07
2.60793e-06
4.15924e-06
1.46197e-06
-1.07986e-07
2.58901e-06
4.10874e-06
1.47927e-06
-5.74892e-08
2.57172e-06
4.06478e-06
1.49465e-06
-1.35248e-08
2.55634e-06
4.02582e-06
1.50822e-06
2.5426e-08
2.54277e-06
3.99074e-06
1.52027e-06
6.05067e-08
2.53073e-06
3.95871e-06
1.53106e-06
9.25361e-08
2.51993e-06
3.92915e-06
1.54087e-06
1.22098e-07
2.51013e-06
3.90164e-06
1.54989e-06
1.49606e-07
2.5011e-06
3.87589e-06
1.55829e-06
1.75355e-07
2.49271e-06
3.8517e-06
1.56616e-06
1.99538e-07
2.48484e-06
3.82897e-06
1.57357e-06
2.22269e-07
2.47743e-06
3.80764e-06
1.58054e-06
2.43597e-07
2.47045e-06
3.78771e-06
1.5871e-06
2.63527e-07
2.4639e-06
3.76921e-06
1.59321e-06
2.8203e-07
2.45778e-06
3.75218e-06
1.59887e-06
2.99056e-07
2.45213e-06
3.7367e-06
1.60404e-06
3.14538e-07
2.44696e-06
3.72284e-06
1.60869e-06
3.28402e-07
2.44231e-06
3.71067e-06
1.61277e-06
3.40563e-07
2.43822e-06
3.7003e-06
1.61627e-06
3.50939e-07
2.43473e-06
3.69179e-06
1.61912e-06
3.59444e-07
2.43188e-06
3.68528e-06
1.62129e-06
3.65958e-07
2.42971e-06
3.68097e-06
1.6227e-06
3.70261e-07
2.4283e-06
3.67897e-06
1.62339e-06
3.72267e-07
2.42762e-06
)
;

boundaryField
{
    inlet
    {
        type            cyclic;
    }
    outlet
    {
        type            cyclic;
    }
    fixedWalls-bottom
    {
        type            zeroGradient;
    }
    fixedWalls-top
    {
        type            symmetry;
    }
    frontAndBack
    {
        type            empty;
    }
}


// ************************************************************************* //
