/*--------------------------------*- C++ -*----------------------------------*\
  =========                 |
  \\      /  F ield         | OpenFOAM: The Open Source CFD Toolbox
   \\    /   O peration     | Website:  https://openfoam.org
    \\  /    A nd           | Version:  10
     \\/     M anipulation  |
\*---------------------------------------------------------------------------*/
FoamFile
{
    format      ascii;
    class       surfaceScalarField;
    location    "1842";
    object      phi;
}
// * * * * * * * * * * * * * * * * * * * * * * * * * * * * * * * * * * * * * //

dimensions      [0 3 -1 0 0 0 0];

internalField   nonuniform List<scalar> 
696
(
7.82525e-05
1.25169e-09
7.82469e-05
5.59954e-09
7.82481e-05
-1.22107e-09
-5.59959e-09
0.00023845
4.78047e-09
0.000238433
2.2469e-08
0.000238437
-4.74949e-09
-2.24691e-08
0.000404658
1.05457e-08
0.000404629
5.08866e-08
0.000404635
-1.05152e-08
-5.08869e-08
0.000577035
1.8497e-08
0.000576994
9.11616e-08
0.000577002
-1.84662e-08
-9.11619e-08
0.000755743
2.85807e-08
0.000755691
1.43611e-07
0.000755701
-2.85503e-08
-1.43611e-07
0.000940949
4.07509e-08
0.000940884
2.0856e-07
0.000940896
-4.07202e-08
-2.0856e-07
0.00113282
5.49678e-08
0.00113274
2.86344e-07
0.00113276
-5.49375e-08
-2.86344e-07
0.00133152
7.12095e-08
0.00133143
3.77309e-07
0.00133145
-7.1179e-08
-3.7731e-07
0.00153723
8.94717e-08
0.00153713
4.81812e-07
0.00153715
-8.94417e-08
-4.81813e-07
0.00175012
1.0978e-07
0.00175
6.00216e-07
0.00175002
-1.0975e-07
-6.00217e-07
0.00197035
1.3219e-07
0.00197022
7.32889e-07
0.00197024
-1.32161e-07
-7.3289e-07
0.0021981
1.56798e-07
0.00219796
8.80195e-07
0.00219798
-1.56769e-07
-8.80196e-07
0.00243353
1.83738e-07
0.00243337
1.04248e-06
0.0024334
-1.83709e-07
-1.04248e-06
0.0026768
2.13184e-07
0.00267662
1.22003e-06
0.00267665
-2.13155e-07
-1.22003e-06
0.00292805
2.45336e-07
0.00292786
1.41306e-06
0.00292789
-2.45308e-07
-1.41307e-06
0.0031874
2.80408e-07
0.00318719
1.62164e-06
0.00318723
-2.80379e-07
-1.62164e-06
0.00345496
3.18584e-07
0.00345473
1.84554e-06
0.00345477
-3.18556e-07
-1.84555e-06
0.00373078
3.59983e-07
0.00373054
2.08416e-06
0.00373058
-3.59954e-07
-2.08416e-06
0.00401486
4.04559e-07
0.00401461
2.33616e-06
0.00401466
-4.04531e-07
-2.33617e-06
0.00430715
4.51983e-07
0.00430689
2.59917e-06
0.00430694
-4.51955e-07
-2.59917e-06
0.00460747
5.01442e-07
0.0046072
2.86908e-06
0.00460725
-5.01415e-07
-2.86908e-06
0.0049155
5.5137e-07
0.00491523
3.13915e-06
0.00491528
-5.51343e-07
-3.13915e-06
0.00523074
5.99057e-07
0.00523048
3.39861e-06
0.00523053
-5.99031e-07
-3.39862e-06
0.00555246
6.40211e-07
0.00555222
3.63091e-06
0.00555227
-6.40184e-07
-3.63091e-06
0.00587962
6.6853e-07
0.00587944
3.81158e-06
0.00587946
-6.68505e-07
-3.81158e-06
0.00621086
6.754e-07
0.00621077
3.90572e-06
0.00621077
-6.75375e-07
-3.90573e-06
0.00654448
6.49889e-07
0.00654452
3.86581e-06
0.00654449
-6.49865e-07
-3.86581e-06
0.00687843
5.79221e-07
0.00687866
3.63067e-06
0.00687859
-5.79197e-07
-3.63068e-06
0.00721326
4.92916e-07
0.00721362
3.26619e-06
0.00721353
-4.92893e-07
-3.26619e-06
0.00755143
4.26938e-07
0.00755183
2.87476e-06
0.00755176
-4.26915e-07
-2.87476e-06
0.00789391
3.80982e-07
0.00789432
2.46436e-06
0.00789427
-3.80959e-07
-2.46436e-06
0.00824067
3.52668e-07
0.0082411
2.03876e-06
0.00824107
-3.52645e-07
-2.03876e-06
0.00859173
3.39361e-07
0.00859216
1.602e-06
0.00859215
-3.39339e-07
-1.602e-06
0.0089471
3.38349e-07
0.00894754
1.15862e-06
0.00894754
-3.38326e-07
-1.15862e-06
0.00930684
3.46941e-07
0.00930728
7.1346e-07
0.00930729
-3.46919e-07
-7.13461e-07
0.00967105
3.62638e-07
0.00967149
2.7155e-07
0.00967151
-3.62616e-07
-2.7155e-07
0.0100399
3.8334e-07
0.0100403
-1.62065e-07
0.0100403
-3.83318e-07
1.62064e-07
0.0104134
4.07532e-07
0.0104138
-5.82474e-07
0.0104139
-4.0751e-07
5.82473e-07
0.0107919
4.34352e-07
0.0107923
-9.84962e-07
0.0107924
-4.34331e-07
9.84961e-07
0.0111756
4.636e-07
0.011176
-1.36504e-06
0.011176
-4.63578e-07
1.36504e-06
0.0115647
4.95691e-07
0.0115651
-1.71853e-06
0.0115651
-4.95669e-07
1.71852e-06
0.0119595
5.316e-07
0.0119599
-2.04166e-06
0.0119599
-5.31579e-07
2.04166e-06
0.0123604
5.72754e-07
0.0123606
-2.3312e-06
0.0123607
-5.72733e-07
2.3312e-06
0.0127675
6.20788e-07
0.0127678
-2.58447e-06
0.0127678
-6.20766e-07
2.58447e-06
0.0131813
6.77214e-07
0.0131816
-2.79946e-06
0.0131816
-6.77192e-07
2.79945e-06
0.0136022
7.43131e-07
0.0136024
-2.97489e-06
0.0136024
-7.43109e-07
2.97488e-06
0.0140305
8.19014e-07
0.0140306
-3.11024e-06
0.0140307
-8.18992e-07
3.11024e-06
0.0144665
9.04608e-07
0.0144666
-3.20583e-06
0.0144667
-9.04586e-07
3.20582e-06
0.0149107
9.98853e-07
0.0149108
-3.26275e-06
0.0149108
-9.98831e-07
3.26274e-06
0.0153634
1.09983e-06
0.0153635
-3.2829e-06
0.0153636
-1.09981e-06
3.28289e-06
0.0158252
1.2047e-06
0.0158251
-3.26891e-06
0.0158252
-1.20468e-06
3.2689e-06
0.0162962
1.30971e-06
0.0162962
-3.2241e-06
0.0162963
-1.30969e-06
3.22409e-06
0.0167771
1.41021e-06
0.016777
-3.15238e-06
0.0167771
-1.41019e-06
3.15238e-06
0.0172681
1.50078e-06
0.017268
-3.05816e-06
0.0172681
-1.50076e-06
3.05816e-06
0.0177699
1.57547e-06
0.0177698
-2.94613e-06
0.0177699
-1.57545e-06
2.94612e-06
0.0182829
1.628e-06
0.0182827
-2.82104e-06
0.0182828
-1.62798e-06
2.82103e-06
0.0188075
1.65201e-06
0.0188074
-2.68741e-06
0.0188074
-1.65199e-06
2.6874e-06
0.0193445
1.64118e-06
0.0193443
-2.54918e-06
0.0193443
-1.64116e-06
2.54918e-06
0.0198943
1.58931e-06
0.0198941
-2.40927e-06
0.0198941
-1.58928e-06
2.40926e-06
0.0204576
1.49048e-06
0.0204575
-2.26902e-06
0.0204574
-1.49046e-06
2.26902e-06
0.0210352
1.33911e-06
0.0210351
-2.12767e-06
0.021035
-1.33908e-06
2.12766e-06
0.0216279
1.12989e-06
0.0216277
-1.98154e-06
0.0216275
-1.12987e-06
1.98153e-06
0.0222364
8.57694e-07
0.0222362
-1.82322e-06
0.0222359
-8.57674e-07
1.82322e-06
0.0228616
5.17519e-07
0.0228614
-1.64062e-06
0.0228611
-5.17499e-07
1.64061e-06
0.0235046
1.04793e-07
0.0235044
-1.4158e-06
0.0235039
-1.04773e-07
1.4158e-06
0.0241663
-3.82157e-07
0.024166
-1.12451e-06
0.0241656
3.82176e-07
1.1245e-06
0.0248485
-9.17506e-07
0.0248481
-7.44977e-07
0.0248476
9.17525e-07
7.44972e-07
0.0255585
-1.15826e-06
0.0255582
-3.80473e-07
0.0255579
1.15828e-06
3.80466e-07
0.0263074
-8.91067e-07
0.0263071
-1.27097e-07
0.0263074
8.91088e-07
1.27089e-07
0.0270974
-4.34941e-07
0.0270972
6.30355e-08
0.0270977
4.34963e-07
-6.30451e-08
0.0279229
-1.0233e-08
0.0279227
2.09062e-07
0.0279231
1.02543e-08
-2.09072e-07
0.0287769
3.01054e-07
0.0287768
3.24368e-07
0.0287771
-3.01033e-07
-3.24378e-07
0.0296544
4.97944e-07
0.0296543
4.13591e-07
0.0296545
-4.97923e-07
-4.13601e-07
0.0305516
6.00854e-07
0.0305515
4.79664e-07
0.0305516
-6.00834e-07
-4.79673e-07
0.0314657
6.34627e-07
0.0314657
5.24928e-07
0.0314657
-6.34608e-07
-5.24937e-07
0.0323948
6.22518e-07
0.0323947
5.51177e-07
0.0323947
-6.225e-07
-5.51185e-07
0.033337
5.83149e-07
0.033337
5.60328e-07
0.0333369
-5.83131e-07
-5.60337e-07
0.0342908
5.29989e-07
0.0342908
5.55061e-07
0.0342908
-5.29973e-07
-5.55069e-07
0.035255
4.72601e-07
0.035255
5.38339e-07
0.0352549
-4.72585e-07
-5.38346e-07
0.0362282
4.17225e-07
0.0362282
5.1316e-07
0.0362282
-4.1721e-07
-5.13167e-07
0.0372093
3.67307e-07
0.0372093
4.82409e-07
0.0372092
-3.67293e-07
-4.82416e-07
0.0381969
3.24304e-07
0.038197
4.48621e-07
0.0381969
-3.2429e-07
-4.48628e-07
0.03919
2.88342e-07
0.0391901
4.13837e-07
0.03919
-2.88329e-07
-4.13843e-07
0.0401873
2.58746e-07
0.0401874
3.79554e-07
0.0401873
-2.58734e-07
-3.79561e-07
0.0411875
2.34438e-07
0.0411875
3.46745e-07
0.0411875
-2.34426e-07
-3.46751e-07
0.0421891
2.14196e-07
0.0421891
3.15922e-07
0.0421891
-2.14185e-07
-3.15928e-07
0.0431907
1.96848e-07
0.0431907
2.87245e-07
0.0431907
-1.96837e-07
-2.8725e-07
0.0441908
1.81373e-07
0.0441908
2.60612e-07
0.0441908
-1.81363e-07
-2.60618e-07
0.0451877
1.66959e-07
0.0451877
2.35767e-07
0.0451877
-1.66951e-07
-2.35772e-07
0.0461797
1.53006e-07
0.0461797
2.1237e-07
0.0461797
-1.52998e-07
-2.12375e-07
0.0471648
1.39105e-07
0.0471648
1.90067e-07
0.0471648
-1.39098e-07
-1.90072e-07
0.048141
1.25004e-07
0.0481411
1.68528e-07
0.048141
-1.24997e-07
-1.68532e-07
0.0491063
1.10565e-07
0.0491063
1.47469e-07
0.0491063
-1.10559e-07
-1.47473e-07
0.0500582
9.57311e-08
0.0500583
1.26664e-07
0.0500582
-9.57263e-08
-1.26667e-07
0.0509944
8.04921e-08
0.0509945
1.0594e-07
0.0509944
-8.04882e-08
-1.05942e-07
0.0519122
6.48604e-08
0.0519123
8.51718e-08
0.0519122
-6.48573e-08
-8.5174e-08
0.0528089
4.88567e-08
0.0528089
6.42737e-08
0.0528089
-4.88544e-08
-6.42754e-08
0.0536814
3.24976e-08
0.0536814
4.31861e-08
0.0536814
-3.24963e-08
-4.31872e-08
0.0545266
1.57917e-08
0.0545266
2.18698e-08
0.0545266
-1.57912e-08
-2.18703e-08
0.0553411
0.0553411
0.0553411
)
;

boundaryField
{
    inlet
    {
        type            cyclic;
        value           nonuniform List<scalar> 
100
(
-0.0553411
-0.0545265
-0.0536814
-0.0528089
-0.0519122
-0.0509944
-0.0500582
-0.0491063
-0.048141
-0.0471648
-0.0461796
-0.0451877
-0.0441908
-0.0431907
-0.042189
-0.0411874
-0.0401873
-0.03919
-0.0381969
-0.0372092
-0.0362281
-0.0352549
-0.0342908
-0.0333369
-0.0323948
-0.0314658
-0.0305517
-0.0296546
-0.0287772
-0.0279233
-0.0270979
-0.0263076
-0.0255583
-0.024848
-0.0241658
-0.0235042
-0.0228613
-0.0222361
-0.0216277
-0.0210351
-0.0204575
-0.0198942
-0.0193444
-0.0188075
-0.0182829
-0.01777
-0.0172682
-0.0167772
-0.0162963
-0.0158253
-0.0153635
-0.0149108
-0.0144666
-0.0140305
-0.0136023
-0.0131814
-0.0127676
-0.0123604
-0.0119596
-0.0115648
-0.0111756
-0.010792
-0.0104134
-0.0100399
-0.00967106
-0.00930685
-0.00894709
-0.00859171
-0.00824064
-0.00789386
-0.00755137
-0.00721317
-0.00687836
-0.00654445
-0.00621087
-0.00587964
-0.0055525
-0.00523079
-0.00491555
-0.00460752
-0.0043072
-0.00401491
-0.00373082
-0.00345499
-0.00318744
-0.00292808
-0.00267683
-0.00243356
-0.00219813
-0.00197038
-0.00175014
-0.00153725
-0.00133154
-0.00113283
-0.000940961
-0.000755754
-0.000577043
-0.000404663
-0.000238454
-7.82537e-05
)
;
    }
    outlet
    {
        type            cyclic;
        value           nonuniform List<scalar> 
100
(
0.0553411
0.0545265
0.0536814
0.0528089
0.0519122
0.0509944
0.0500582
0.0491063
0.048141
0.0471648
0.0461796
0.0451877
0.0441908
0.0431907
0.042189
0.0411874
0.0401873
0.03919
0.0381969
0.0372092
0.0362281
0.0352549
0.0342908
0.0333369
0.0323948
0.0314658
0.0305517
0.0296546
0.0287772
0.0279233
0.0270979
0.0263076
0.0255583
0.024848
0.0241658
0.0235042
0.0228613
0.0222361
0.0216277
0.0210351
0.0204575
0.0198942
0.0193444
0.0188075
0.0182829
0.01777
0.0172682
0.0167772
0.0162963
0.0158253
0.0153635
0.0149108
0.0144666
0.0140305
0.0136023
0.0131814
0.0127676
0.0123604
0.0119596
0.0115648
0.0111756
0.010792
0.0104134
0.0100399
0.00967106
0.00930685
0.00894709
0.00859171
0.00824064
0.00789386
0.00755137
0.00721317
0.00687836
0.00654445
0.00621087
0.00587964
0.0055525
0.00523079
0.00491555
0.00460752
0.0043072
0.00401491
0.00373082
0.00345499
0.00318744
0.00292808
0.00267683
0.00243356
0.00219813
0.00197038
0.00175014
0.00153725
0.00133154
0.00113283
0.000940961
0.000755754
0.000577043
0.000404663
0.000238454
7.82537e-05
)
;
    }
    fixedWalls-bottom
    {
        type            calculated;
        value           uniform 0;
    }
    fixedWalls-top
    {
        type            symmetry;
        value           uniform 0;
    }
    frontAndBack
    {
        type            empty;
        value           nonuniform List<scalar> 0();
    }
}


// ************************************************************************* //
