/*--------------------------------*- C++ -*----------------------------------*\
  =========                 |
  \\      /  F ield         | OpenFOAM: The Open Source CFD Toolbox
   \\    /   O peration     | Website:  https://openfoam.org
    \\  /    A nd           | Version:  10
     \\/     M anipulation  |
\*---------------------------------------------------------------------------*/
FoamFile
{
    format      ascii;
    class       volSymmTensorField;
    location    "1842";
    object      R;
}
// * * * * * * * * * * * * * * * * * * * * * * * * * * * * * * * * * * * * * //

dimensions      [0 2 -2 0 0 0 0];

internalField   nonuniform List<symmTensor> 
400
(
(4.7648e-09 -3.02745e-13 -0 4.7648e-09 -0 4.7648e-09)
(4.75299e-09 -3.0197e-13 -0 4.75299e-09 -0 4.75299e-09)
(4.74603e-09 -3.0151e-13 -0 4.74603e-09 -0 4.74603e-09)
(4.75672e-09 -3.02216e-13 -0 4.75672e-09 -0 4.75672e-09)
(1.42959e-07 -5.28597e-11 -0 1.42959e-07 -0 1.42959e-07)
(1.42605e-07 -5.27241e-11 -0 1.42605e-07 -0 1.42605e-07)
(1.42396e-07 -5.26438e-11 -0 1.42396e-07 -0 1.42396e-07)
(1.42717e-07 -5.2767e-11 -0 1.42717e-07 -0 1.42717e-07)
(1.01242e-06 -1.10766e-09 -0 1.01242e-06 -0 1.01242e-06)
(1.00991e-06 -1.10482e-09 -0 1.00991e-06 -0 1.00991e-06)
(1.00843e-06 -1.10314e-09 -0 1.00843e-06 -0 1.00843e-06)
(1.0107e-06 -1.10572e-09 -0 1.0107e-06 -0 1.0107e-06)
(3.68075e-06 -8.53147e-09 -0 3.68075e-06 -0 3.68075e-06)
(3.67164e-06 -8.50963e-09 -0 3.67164e-06 -0 3.67164e-06)
(3.66626e-06 -8.4967e-09 -0 3.66626e-06 -0 3.66626e-06)
(3.67453e-06 -8.51657e-09 -0 3.67453e-06 -0 3.67453e-06)
(9.52453e-06 -3.88381e-08 -0 9.52453e-06 -0 9.52453e-06)
(9.50098e-06 -3.87388e-08 -0 9.50098e-06 -0 9.50098e-06)
(9.48705e-06 -3.86801e-08 -0 9.48705e-06 -0 9.48705e-06)
(9.50844e-06 -3.87706e-08 -0 9.50844e-06 -0 9.50844e-06)
(2.01737e-05 -1.29021e-07 -0 2.01737e-05 -0 2.01737e-05)
(2.01239e-05 -1.28691e-07 -0 2.01239e-05 -0 2.01239e-05)
(2.00943e-05 -1.28498e-07 -0 2.00943e-05 -0 2.00943e-05)
(2.01396e-05 -1.28799e-07 -0 2.01396e-05 -0 2.01396e-05)
(3.7499e-05 -3.48314e-07 -0 3.7499e-05 -0 3.7499e-05)
(3.74063e-05 -3.47419e-07 -0 3.74063e-05 -0 3.74063e-05)
(3.73512e-05 -3.46901e-07 -0 3.73512e-05 -0 3.73512e-05)
(3.74355e-05 -3.47718e-07 -0 3.74355e-05 -0 3.74355e-05)
(6.36121e-05 -8.12532e-07 -0 6.36121e-05 -0 6.36121e-05)
(6.3455e-05 -8.10428e-07 -0 6.3455e-05 -0 6.3455e-05)
(6.33612e-05 -8.09236e-07 -0 6.33612e-05 -0 6.33612e-05)
(6.35041e-05 -8.11156e-07 -0 6.35041e-05 -0 6.35041e-05)
(0.000100871 -1.70139e-06 -0 0.000100871 -0 0.000100871)
(0.000100622 -1.69692e-06 -0 0.000100622 -0 0.000100622)
(0.000100473 -1.69447e-06 -0 0.000100473 -0 0.000100473)
(0.000100699 -1.69855e-06 -0 0.0001007 -0 0.0001007)
(0.000151887 -3.27948e-06 -0 0.000151887 -0 0.000151887)
(0.000151512 -3.27069e-06 -0 0.000151512 -0 0.000151512)
(0.000151286 -3.26608e-06 -0 0.000151286 -0 0.000151286)
(0.000151626 -3.27409e-06 -0 0.000151627 -0 0.000151626)
(0.000219521 -5.92222e-06 -0 0.000219521 -0 0.000219521)
(0.000218982 -5.90587e-06 -0 0.000218982 -0 0.000218982)
(0.000218652 -5.8978e-06 -0 0.000218652 -0 0.000218652)
(0.000219143 -5.91264e-06 -0 0.000219143 -0 0.000219143)
(0.000306887 -1.01489e-05 -0 0.000306887 -0 0.000306887)
(0.000306138 -1.01197e-05 -0 0.000306137 -0 0.000306138)
(0.00030567 -1.01064e-05 -0 0.000305671 -0 0.00030567)
(0.000306354 -1.01327e-05 -0 0.000306355 -0 0.000306354)
(0.000417329 -1.66661e-05 -0 0.000417328 -0 0.000417329)
(0.000416317 -1.66158e-05 -0 0.000416317 -0 0.000416317)
(0.000415674 -1.65947e-05 -0 0.000415674 -0 0.000415674)
(0.000416598 -1.66398e-05 -0 0.000416598 -0 0.000416598)
(0.000554386 -2.64267e-05 -0 0.000554386 -0 0.000554386)
(0.000553058 -2.63421e-05 -0 0.000553057 -0 0.000553058)
(0.000552191 -2.63099e-05 -0 0.000552191 -0 0.000552191)
(0.000553407 -2.6385e-05 -0 0.000553408 -0 0.000553407)
(0.000721738 -4.07101e-05 -0 0.000721738 -0 0.000721738)
(0.000720038 -4.05708e-05 -0 0.000720036 -0 0.000720037)
(0.000718891 -4.05227e-05 -0 0.000718891 -0 0.000718891)
(0.000720453 -4.06448e-05 -0 0.000720455 -0 0.000720454)
(0.000923113 -6.12328e-05 -0 0.000923112 -0 0.000923113)
(0.000920985 -6.10072e-05 -0 0.000920982 -0 0.000920984)
(0.000919494 -6.09368e-05 -0 0.000919494 -0 0.000919494)
(0.000921458 -6.11312e-05 -0 0.000921461 -0 0.000921459)
(0.00116216 -9.02975e-05 -0 0.00116216 -0 0.00116216)
(0.00115955 -8.99384e-05 -0 0.00115955 -0 0.00115955)
(0.00115764 -8.98358e-05 -0 0.00115765 -0 0.00115765)
(0.00116007 -9.01391e-05 -0 0.00116007 -0 0.00116007)
(0.00144227 -0.000130991 -0 0.00144227 -0 0.00144227)
(0.00143916 -0.000130429 -0 0.00143915 -0 0.00143915)
(0.00143675 -0.000130279 -0 0.00143675 -0 0.00143675)
(0.00143967 -0.000130742 -0 0.00143968 -0 0.00143968)
(0.00176639 -0.000187444 -0 0.00176639 -0 0.00176639)
(0.00176274 -0.000186574 -0 0.00176273 -0 0.00176274)
(0.00175974 -0.000186354 -0 0.00175975 -0 0.00175975)
(0.00176322 -0.000187054 -0 0.00176323 -0 0.00176322)
(0.00213671 -0.000265142 -0 0.00213671 -0 0.00213671)
(0.00213253 -0.000263811 -0 0.00213252 -0 0.00213253)
(0.00212886 -0.000263481 -0 0.00212886 -0 0.00212886)
(0.00213291 -0.00026453 -0 0.00213292 -0 0.00213292)
(0.00255437 -0.00037128 -0 0.00255437 -0 0.00255437)
(0.00254971 -0.000369269 -0 0.00254969 -0 0.0025497)
(0.00254527 -0.000368761 -0 0.00254527 -0 0.00254527)
(0.00254991 -0.000370329 -0 0.00254993 -0 0.00254992)
(0.00301912 -0.000515097 -0 0.00301911 -0 0.00301911)
(0.00301406 -0.000512114 -0 0.00301404 -0 0.00301405)
(0.00300878 -0.000511298 -0 0.00300878 -0 0.00300878)
(0.00301398 -0.000513649 -0 0.00301401 -0 0.003014)
(0.0035289 -0.000708069 -0 0.00352889 -0 0.00352889)
(0.0035236 -0.000703745 -0 0.00352356 -0 0.00352358)
(0.00351741 -0.000702371 -0 0.00351742 -0 0.00351741)
(0.00352312 -0.000705929 -0 0.00352316 -0 0.00352314)
(0.00407951 -0.000963681 -0 0.0040795 -0 0.0040795)
(0.00407416 -0.000957623 -0 0.00407411 -0 0.00407414)
(0.00406706 -0.000955282 -0 0.00406707 -0 0.00406707)
(0.00407317 -0.000960659 -0 0.00407321 -0 0.00407319)
(0.00466428 -0.00129659 -0 0.00466427 -0 0.00466427)
(0.00465914 -0.00128844 -0 0.00465909 -0 0.00465911)
(0.00465119 -0.00128445 -0 0.0046512 -0 0.0046512)
(0.00465748 -0.00129253 -0 0.00465753 -0 0.00465751)
(0.00527391 -0.00172167 -0 0.00527391 -0 0.00527391)
(0.00526929 -0.00171115 -0 0.00526926 -0 0.00526927)
(0.00526066 -0.00170452 -0 0.00526066 -0 0.00526066)
(0.00526683 -0.00171645 -0 0.00526686 -0 0.00526685)
(0.00589656 -0.00225162 -0 0.00589657 -0 0.00589657)
(0.00589279 -0.00223868 -0 0.00589282 -0 0.0058928)
(0.00588378 -0.00222812 -0 0.00588376 -0 0.00588377)
(0.00588939 -0.00224522 -0 0.00588937 -0 0.00588938)
(0.00651826 -0.00290987 -0 0.00651831 -0 0.00651829)
(0.00651567 -0.0028939 -0 0.00651582 -0 0.00651575)
(0.00650672 -0.00287695 -0 0.00650667 -0 0.0065067)
(0.00651124 -0.00290209 -0 0.00651109 -0 0.00651116)
(0.00712995 -0.00331544 -0 0.00713001 -0 0.00712998)
(0.00712862 -0.00331487 -0 0.00712889 -0 0.00712876)
(0.00711991 -0.00331074 -0 0.00711985 -0 0.00711988)
(0.00712314 -0.0033122 -0 0.00712288 -0 0.007123)
(0.00773022 -0.00359457 -0 0.00773028 -0 0.00773025)
(0.00773001 -0.00359453 -0 0.00773035 -0 0.00773018)
(0.00772146 -0.00359047 -0 0.0077214 -0 0.00772143)
(0.00772359 -0.00359139 -0 0.00772325 -0 0.00772342)
(0.00831553 -0.00386673 -0 0.00831557 -0 0.00831555)
(0.00831652 -0.00386727 -0 0.00831691 -0 0.00831671)
(0.00830826 -0.00386333 -0 0.00830822 -0 0.00830824)
(0.00830908 -0.00386363 -0 0.0083087 -0 0.00830889)
(0.0088807 -0.00412953 -0 0.00888073 -0 0.00888071)
(0.00888295 -0.00413067 -0 0.00888337 -0 0.00888316)
(0.00887513 -0.00412693 -0 0.0088751 -0 0.00887511)
(0.00887443 -0.00412651 -0 0.008874 -0 0.00887421)
(0.00942109 -0.00438081 -0 0.0094211 -0 0.00942109)
(0.00942461 -0.00438256 -0 0.00942509 -0 0.00942485)
(0.00941738 -0.00437908 -0 0.00941736 -0 0.00941737)
(0.00941495 -0.00437784 -0 0.00941448 -0 0.00941472)
(0.00993271 -0.00461871 -0 0.00993271 -0 0.00993271)
(0.00993753 -0.00462107 -0 0.00993805 -0 0.00993779)
(0.00993097 -0.0046179 -0 0.00993097 -0 0.00993097)
(0.00992666 -0.00461578 -0 0.00992614 -0 0.0099264)
(0.0104122 -0.00484168 -0 0.0104122 -0 0.0104122)
(0.0104184 -0.00484466 -0 0.0104189 -0 0.0104186)
(0.0104125 -0.00484182 -0 0.0104125 -0 0.0104125)
(0.0104062 -0.00483874 -0 0.0104056 -0 0.0104059)
(0.0108569 -0.00504845 -0 0.0108569 -0 0.0108569)
(0.0108643 -0.00505205 -0 0.0108649 -0 0.0108646)
(0.0108592 -0.00504954 -0 0.0108592 -0 0.0108592)
(0.0108508 -0.00504547 -0 0.0108502 -0 0.0108505)
(0.0112645 -0.00523798 -0 0.0112645 -0 0.0112645)
(0.0112733 -0.00524221 -0 0.0112739 -0 0.0112736)
(0.0112688 -0.00523999 -0 0.0112688 -0 0.0112688)
(0.0112581 -0.0052349 -0 0.0112575 -0 0.0112578)
(0.0116332 -0.00540941 -0 0.0116331 -0 0.0116331)
(0.0116433 -0.00541429 -0 0.0116439 -0 0.0116436)
(0.0116393 -0.0054123 -0 0.0116394 -0 0.0116394)
(0.0116265 -0.00540619 -0 0.0116259 -0 0.0116262)
(0.0119616 -0.00556212 -0 0.0119615 -0 0.0119615)
(0.0119731 -0.00556763 -0 0.0119737 -0 0.0119734)
(0.0119695 -0.00556585 -0 0.0119696 -0 0.0119696)
(0.0119545 -0.0055587 -0 0.0119539 -0 0.0119542)
(0.0122487 -0.00569565 -0 0.0122487 -0 0.0122487)
(0.0122616 -0.00570176 -0 0.0122622 -0 0.0122619)
(0.0122584 -0.00570017 -0 0.0122584 -0 0.0122584)
(0.0122411 -0.00569198 -0 0.0122405 -0 0.0122408)
(0.0124941 -0.00580977 -0 0.0124941 -0 0.0124941)
(0.0125082 -0.00581644 -0 0.0125088 -0 0.0125085)
(0.0125053 -0.005815 -0 0.0125054 -0 0.0125054)
(0.0124859 -0.00580581 -0 0.0124853 -0 0.0124856)
(0.0126976 -0.00590438 -0 0.0126976 -0 0.0126976)
(0.0127128 -0.00591157 -0 0.0127133 -0 0.0127131)
(0.0127102 -0.00591026 -0 0.0127103 -0 0.0127102)
(0.0126887 -0.00590011 -0 0.0126881 -0 0.0126884)
(0.0128594 -0.00597963 -0 0.0128594 -0 0.0128594)
(0.0128756 -0.00598726 -0 0.0128761 -0 0.0128758)
(0.0128732 -0.00598607 -0 0.0128733 -0 0.0128733)
(0.0128498 -0.00597502 -0 0.0128493 -0 0.0128495)
(0.0129803 -0.0060358 -0 0.0129802 -0 0.0129802)
(0.0129972 -0.00604382 -0 0.0129977 -0 0.0129975)
(0.0129951 -0.00604274 -0 0.0129952 -0 0.0129951)
(0.0129699 -0.00603089 -0 0.0129694 -0 0.0129697)
(0.0130612 -0.00607344 -0 0.0130611 -0 0.0130612)
(0.0130789 -0.00608177 -0 0.0130793 -0 0.0130791)
(0.0130769 -0.0060808 -0 0.013077 -0 0.013077)
(0.0130502 -0.00606827 -0 0.0130498 -0 0.01305)
(0.0131038 -0.00609322 -0 0.0131036 -0 0.0131037)
(0.0131219 -0.00610178 -0 0.0131223 -0 0.0131221)
(0.0131202 -0.00610093 -0 0.0131203 -0 0.0131203)
(0.0130923 -0.00608786 -0 0.013092 -0 0.0130922)
(0.0131096 -0.00609592 -0 0.0131094 -0 0.0131095)
(0.0131281 -0.00610462 -0 0.0131283 -0 0.0131282)
(0.0131266 -0.00610389 -0 0.0131267 -0 0.0131267)
(0.0130979 -0.00609045 -0 0.0130976 -0 0.0130977)
(0.0130803 -0.00608231 -0 0.0130802 -0 0.0130802)
(0.013099 -0.0060911 -0 0.0130992 -0 0.0130991)
(0.0130977 -0.00609049 -0 0.0130979 -0 0.0130978)
(0.0130686 -0.00607684 -0 0.0130684 -0 0.0130685)
(0.0130177 -0.00605317 -0 0.0130175 -0 0.0130176)
(0.0130365 -0.00606198 -0 0.0130366 -0 0.0130365)
(0.0130354 -0.00606149 -0 0.0130356 -0 0.0130355)
(0.0130061 -0.00604781 -0 0.013006 -0 0.013006)
(0.0129232 -0.00600924 -0 0.012923 -0 0.0129231)
(0.0129419 -0.00601801 -0 0.012942 -0 0.012942)
(0.0129411 -0.00601764 -0 0.0129412 -0 0.0129412)
(0.012912 -0.00600408 -0 0.012912 -0 0.012912)
(0.0127983 -0.00595117 -0 0.0127981 -0 0.0127982)
(0.0128169 -0.00595984 -0 0.0128168 -0 0.0128169)
(0.0128162 -0.00595959 -0 0.0128164 -0 0.0128163)
(0.0127877 -0.00594631 -0 0.0127878 -0 0.0127878)
(0.0126442 -0.0058795 -0 0.012644 -0 0.0126441)
(0.0126624 -0.005888 -0 0.0126623 -0 0.0126624)
(0.012662 -0.00588788 -0 0.0126622 -0 0.0126621)
(0.0126344 -0.00587501 -0 0.0126345 -0 0.0126344)
(0.0124617 -0.00579466 -0 0.0124615 -0 0.0124616)
(0.0124795 -0.00580292 -0 0.0124793 -0 0.0124794)
(0.0124794 -0.00580295 -0 0.0124796 -0 0.0124795)
(0.0124528 -0.00579058 -0 0.0124529 -0 0.0124529)
(0.0122515 -0.00569692 -0 0.0122514 -0 0.0122514)
(0.0122686 -0.00570488 -0 0.0122685 -0 0.0122685)
(0.0122689 -0.00570508 -0 0.0122691 -0 0.012269)
(0.0122435 -0.00569328 -0 0.0122437 -0 0.0122436)
(0.0120139 -0.00558643 -0 0.0120138 -0 0.0120138)
(0.0120302 -0.00559401 -0 0.01203 -0 0.0120301)
(0.0120309 -0.00559439 -0 0.012031 -0 0.012031)
(0.0120068 -0.00558321 -0 0.012007 -0 0.0120069)
(0.0117488 -0.00546318 -0 0.0117487 -0 0.0117488)
(0.0117643 -0.00547036 -0 0.0117641 -0 0.0117642)
(0.0117654 -0.00547091 -0 0.0117654 -0 0.0117654)
(0.0117426 -0.00546037 -0 0.0117428 -0 0.0117427)
(0.0114561 -0.00532708 -0 0.0114561 -0 0.0114561)
(0.0114707 -0.00533381 -0 0.0114705 -0 0.0114706)
(0.0114721 -0.00533452 -0 0.0114721 -0 0.0114721)
(0.0114507 -0.00532462 -0 0.0114509 -0 0.0114508)
(0.0111353 -0.00517792 -0 0.0111353 -0 0.0111353)
(0.0111489 -0.0051842 -0 0.0111487 -0 0.0111488)
(0.0111506 -0.00518504 -0 0.0111506 -0 0.0111506)
(0.0111306 -0.00517577 -0 0.0111308 -0 0.0111307)
(0.0107859 -0.00501548 -0 0.010786 -0 0.010786)
(0.0107986 -0.00502129 -0 0.0107984 -0 0.0107985)
(0.0108005 -0.00502223 -0 0.0108005 -0 0.0108005)
(0.0107818 -0.00501357 -0 0.010782 -0 0.0107819)
(0.0104074 -0.00483948 -0 0.0104076 -0 0.0104075)
(0.0104191 -0.00484483 -0 0.0104189 -0 0.010419)
(0.0104212 -0.00484584 -0 0.0104211 -0 0.0104212)
(0.0104036 -0.00483774 -0 0.0104038 -0 0.0104037)
(0.00999905 -0.00464961 -0 0.00999926 -0 0.00999915)
(0.0100098 -0.00465451 -0 0.0100096 -0 0.0100097)
(0.010012 -0.00465554 -0 0.0100118 -0 0.0100119)
(0.00999553 -0.00464796 -0 0.00999572 -0 0.00999562)
(0.00956019 -0.00444555 -0 0.00956046 -0 0.00956033)
(0.00957001 -0.00445001 -0 0.00956982 -0 0.00956992)
(0.00957227 -0.00445104 -0 0.00957199 -0 0.00957213)
(0.00955677 -0.00444394 -0 0.00955696 -0 0.00955686)
(0.0090903 -0.00422707 -0 0.00909063 -0 0.00909047)
(0.00909921 -0.00423109 -0 0.00909902 -0 0.00909911)
(0.00910144 -0.00423209 -0 0.00910111 -0 0.00910128)
(0.00908685 -0.00422543 -0 0.00908704 -0 0.00908695)
(0.00858892 -0.00399394 -0 0.00858931 -0 0.00858911)
(0.0085969 -0.00399751 -0 0.00859669 -0 0.00859679)
(0.00859908 -0.00399848 -0 0.0085987 -0 0.00859889)
(0.00858534 -0.00399223 -0 0.00858555 -0 0.00858544)
(0.00805574 -0.00374602 -0 0.00805618 -0 0.00805595)
(0.00806273 -0.00374911 -0 0.00806249 -0 0.00806261)
(0.00806489 -0.00375007 -0 0.00806444 -0 0.00806467)
(0.00805195 -0.00374421 -0 0.00805219 -0 0.00805207)
(0.00749082 -0.00348334 -0 0.0074913 -0 0.00749105)
(0.00749677 -0.00348593 -0 0.00749648 -0 0.00749663)
(0.00749894 -0.0034869 -0 0.00749845 -0 0.00749871)
(0.00748685 -0.00348145 -0 0.00748713 -0 0.00748699)
(0.00689421 -0.00320591 -0 0.00689462 -0 0.00689444)
(0.00689897 -0.00320795 -0 0.00689866 -0 0.00689881)
(0.0069012 -0.00320896 -0 0.00690079 -0 0.00690098)
(0.00689004 -0.00320394 -0 0.00689035 -0 0.0068902)
(0.00625815 -0.00262517 -0 0.00625829 -0 0.00625823)
(0.00626123 -0.00261953 -0 0.00626099 -0 0.00626111)
(0.00626337 -0.00261356 -0 0.00626323 -0 0.00626329)
(0.00625261 -0.00258193 -0 0.00625284 -0 0.00625273)
(0.00557729 -0.00190732 -0 0.00557719 -0 0.00557723)
(0.0055783 -0.00190035 -0 0.00557817 -0 0.00557824)
(0.00558054 -0.00190031 -0 0.00558063 -0 0.0055806)
(0.00557029 -0.00188287 -0 0.00557041 -0 0.00557035)
(0.00486931 -0.00133181 -0 0.00486918 -0 0.00486924)
(0.00486825 -0.0013229 -0 0.00486819 -0 0.00486822)
(0.00487111 -0.00132671 -0 0.00487124 -0 0.00487117)
(0.00486236 -0.0013184 -0 0.00486241 -0 0.00486239)
(0.00416932 -0.000927576 -0 0.00416923 -0 0.00416928)
(0.00416645 -0.000918122 -0 0.00416642 -0 0.00416643)
(0.00417016 -0.000924776 -0 0.00417025 -0 0.0041702)
(0.00416331 -0.000920057 -0 0.00416334 -0 0.00416332)
(0.00350832 -0.000651177 -0 0.00350828 -0 0.0035083)
(0.00350423 -0.000643793 -0 0.00350421 -0 0.00350422)
(0.00350856 -0.00064978 -0 0.00350861 -0 0.00350858)
(0.00350357 -0.000647093 -0 0.00350359 -0 0.00350358)
(0.00290482 -0.000459637 -0 0.0029048 -0 0.00290481)
(0.00290012 -0.000454374 -0 0.00290011 -0 0.00290012)
(0.00290472 -0.000459172 -0 0.00290474 -0 0.00290473)
(0.00290136 -0.000457664 -0 0.00290137 -0 0.00290136)
(0.00236883 -0.000324997 -0 0.00236883 -0 0.00236883)
(0.00236406 -0.000321447 -0 0.00236406 -0 0.00236406)
(0.0023686 -0.00032509 -0 0.0023686 -0 0.0023686)
(0.00236656 -0.00032428 -0 0.00236657 -0 0.00236656)
(0.00190438 -0.000229595 -0 0.00190437 -0 0.00190438)
(0.00189993 -0.000227303 -0 0.00189992 -0 0.00189992)
(0.00190413 -0.000229964 -0 0.00190413 -0 0.00190413)
(0.00190312 -0.000229559 -0 0.00190312 -0 0.00190312)
(0.00151059 -0.000161813 -0 0.00151059 -0 0.00151059)
(0.00150665 -0.000160361 -0 0.00150665 -0 0.00150665)
(0.00151036 -0.000162247 -0 0.00151036 -0 0.00151036)
(0.0015101 -0.00016207 -0 0.0015101 -0 0.0015101)
(0.00118309 -0.000113498 -0 0.00118309 -0 0.00118309)
(0.00117974 -0.000112585 -0 0.00117974 -0 0.00117974)
(0.00118289 -0.000113917 -0 0.00118289 -0 0.00118289)
(0.00118315 -0.000113873 -0 0.00118315 -0 0.00118315)
(0.000915438 -7.90888e-05 -0 0.000915439 -0 0.000915439)
(0.000912627 -7.85239e-05 -0 0.000912627 -0 0.000912627)
(0.000915228 -7.94496e-05 -0 0.000915227 -0 0.000915227)
(0.000915827 -7.94755e-05 -0 0.000915826 -0 0.000915827)
(0.00070018 -5.47432e-05 -0 0.00070018 -0 0.00070018)
(0.000697869 -5.44004e-05 -0 0.000697869 -0 0.000697869)
(0.000699948 -5.50255e-05 -0 0.000699947 -0 0.000699947)
(0.00070073 -5.50817e-05 -0 0.00070073 -0 0.00070073)
(0.000529635 -3.76328e-05 -0 0.000529635 -0 0.000529635)
(0.000527769 -3.74249e-05 -0 0.000527769 -0 0.000527769)
(0.000529381 -3.78416e-05 -0 0.000529381 -0 0.000529381)
(0.000530231 -3.79066e-05 -0 0.00053023 -0 0.00053023)
(0.000396394 -2.56828e-05 -0 0.000396394 -0 0.000396394)
(0.000394912 -2.55562e-05 -0 0.000394912 -0 0.000394912)
(0.000396129 -2.58306e-05 -0 0.000396128 -0 0.000396128)
(0.000396961 -2.58922e-05 -0 0.000396961 -0 0.000396961)
(0.000293658 -1.73948e-05 -0 0.000293658 -0 0.000293658)
(0.000292502 -1.73171e-05 -0 0.000292502 -0 0.000292502)
(0.000293393 -1.74947e-05 -0 0.000293393 -0 0.000293393)
(0.000294154 -1.75473e-05 -0 0.000294154 -0 0.000294154)
(0.000215421 -1.16845e-05 -0 0.000215421 -0 0.000215421)
(0.000214534 -1.16364e-05 -0 0.000214534 -0 0.000214534)
(0.000215168 -1.17495e-05 -0 0.000215168 -0 0.000215168)
(0.000215829 -1.17913e-05 -0 0.000215829 -0 0.000215829)
(0.000156541 -7.78244e-06 -0 0.000156541 -0 0.000156541)
(0.000155875 -7.75287e-06 -0 0.000155875 -0 0.000155875)
(0.000156311 -7.82286e-06 -0 0.000156311 -0 0.000156311)
(0.00015686 -7.85444e-06 -0 0.00015686 -0 0.00015686)
(0.000112729 -5.13957e-06 -0 0.000112729 -0 0.000112729)
(0.000112238 -5.1215e-06 -0 0.000112238 -0 0.000112238)
(0.000112527 -5.16344e-06 -0 0.000112527 -0 0.000112527)
(0.000112967 -5.18628e-06 -0 0.000112967 -0 0.000112967)
(8.04775e-05 -3.36415e-06 -0 8.04775e-05 -0 8.04775e-05)
(8.01248e-05 -3.35316e-06 -0 8.01249e-05 -0 8.01248e-05)
(8.03089e-05 -3.37751e-06 -0 8.03089e-05 -0 8.03089e-05)
(8.06472e-05 -3.39343e-06 -0 8.06472e-05 -0 8.06472e-05)
(5.69799e-05 -2.18171e-06 -0 5.69799e-05 -0 5.69799e-05)
(5.67322e-05 -2.17506e-06 -0 5.67323e-05 -0 5.67323e-05)
(5.68453e-05 -2.18872e-06 -0 5.68452e-05 -0 5.68453e-05)
(5.70951e-05 -2.19939e-06 -0 5.70951e-05 -0 5.70951e-05)
(4.00273e-05 -1.40118e-06 -0 4.00273e-05 -0 4.00273e-05)
(3.98577e-05 -1.39717e-06 -0 3.98577e-05 -0 3.98577e-05)
(3.99244e-05 -1.40455e-06 -0 3.99244e-05 -0 3.99244e-05)
(4.01015e-05 -1.41143e-06 -0 4.01015e-05 -0 4.01015e-05)
(2.79107e-05 -8.90666e-07 -0 2.79107e-05 -0 2.79107e-05)
(2.77976e-05 -8.88254e-07 -0 2.77976e-05 -0 2.77976e-05)
(2.78349e-05 -8.92062e-07 -0 2.78349e-05 -0 2.78349e-05)
(2.79559e-05 -8.9635e-07 -0 2.79559e-05 -0 2.79559e-05)
(1.93274e-05 -5.59926e-07 -0 1.93274e-05 -0 1.93274e-05)
(1.92539e-05 -5.58472e-07 -0 1.92539e-05 -0 1.92539e-05)
(1.92733e-05 -5.6033e-07 -0 1.92733e-05 -0 1.92733e-05)
(1.93533e-05 -5.62914e-07 -0 1.93533e-05 -0 1.93533e-05)
(1.32984e-05 -3.47761e-07 -0 1.32984e-05 -0 1.32984e-05)
(1.32518e-05 -3.46884e-07 -0 1.32518e-05 -0 1.32518e-05)
(1.32609e-05 -3.47727e-07 -0 1.32609e-05 -0 1.32609e-05)
(1.3312e-05 -3.49229e-07 -0 1.3312e-05 -0 1.3312e-05)
(9.09741e-06 -2.13069e-07 -0 9.09741e-06 -0 9.09741e-06)
(9.06876e-06 -2.1254e-07 -0 9.06877e-06 -0 9.06876e-06)
(9.07207e-06 -2.12882e-07 -0 9.07207e-06 -0 9.07207e-06)
(9.10368e-06 -2.13726e-07 -0 9.10368e-06 -0 9.10368e-06)
(6.19282e-06 -1.28509e-07 -0 6.19283e-06 -0 6.19282e-06)
(6.17568e-06 -1.2819e-07 -0 6.17568e-06 -0 6.17568e-06)
(6.176e-06 -1.28301e-07 -0 6.176e-06 -0 6.176e-06)
(6.19499e-06 -1.28764e-07 -0 6.19499e-06 -0 6.19499e-06)
(4.2e-06 -7.60729e-08 -0 4.2e-06 -0 4.2e-06)
(4.19001e-06 -7.58803e-08 -0 4.19001e-06 -0 4.19001e-06)
(4.18881e-06 -7.58941e-08 -0 4.18881e-06 -0 4.18881e-06)
(4.20005e-06 -7.6146e-08 -0 4.20005e-06 -0 4.20005e-06)
(2.84411e-06 -4.40141e-08 -0 2.84411e-06 -0 2.84411e-06)
(2.83833e-06 -4.38992e-08 -0 2.83833e-06 -0 2.83833e-06)
(2.83656e-06 -4.38791e-08 -0 2.83656e-06 -0 2.83656e-06)
(2.84309e-06 -4.40137e-08 -0 2.84309e-06 -0 2.84309e-06)
(1.93119e-06 -2.47424e-08 -0 1.93119e-06 -0 1.93119e-06)
(1.92788e-06 -2.46772e-08 -0 1.92788e-06 -0 1.92788e-06)
(1.92603e-06 -2.46517e-08 -0 1.92603e-06 -0 1.92603e-06)
(1.92972e-06 -2.47199e-08 -0 1.92972e-06 -0 1.92972e-06)
(1.32663e-06 -1.3396e-08 -0 1.32663e-06 -0 1.32663e-06)
(1.32476e-06 -1.33618e-08 -0 1.32476e-06 -0 1.32476e-06)
(1.32309e-06 -1.33421e-08 -0 1.32309e-06 -0 1.32309e-06)
(1.32509e-06 -1.33732e-08 -0 1.32509e-06 -0 1.32509e-06)
(9.39105e-07 -6.86903e-09 -0 9.39106e-07 -0 9.39106e-07)
(9.38057e-07 -6.85209e-09 -0 9.38057e-07 -0 9.38057e-07)
(9.36631e-07 -6.83978e-09 -0 9.36631e-07 -0 9.36631e-07)
(9.37668e-07 -6.85273e-09 -0 9.37668e-07 -0 9.37668e-07)
(7.09159e-07 -3.1544e-09 -0 7.09159e-07 -0 7.09159e-07)
(7.08562e-07 -3.14705e-09 -0 7.08563e-07 -0 7.08563e-07)
(7.07355e-07 -3.14077e-09 -0 7.07355e-07 -0 7.07355e-07)
(7.07883e-07 -3.14532e-09 -0 7.07882e-07 -0 7.07882e-07)
(6.01683e-07 -9.01607e-10 -0 6.01683e-07 -0 6.01683e-07)
(6.01285e-07 -8.99615e-10 -0 6.01285e-07 -0 6.01285e-07)
(6.00218e-07 -8.9777e-10 -0 6.00218e-07 -0 6.00218e-07)
(6.00526e-07 -8.98739e-10 -0 6.00526e-07 -0 6.00526e-07)
)
;

boundaryField
{
    inlet
    {
        type            cyclic;
    }
    outlet
    {
        type            cyclic;
    }
    fixedWalls-bottom
    {
        type            kqRWallFunction;
        value           nonuniform List<symmTensor> 4((4.7648e-09 -0 -0 4.7648e-09 -0 4.7648e-09) (4.75299e-09 -0 -0 4.75299e-09 -0 4.75299e-09) (4.74603e-09 -0 -0 4.74603e-09 -0 4.74603e-09) (4.75672e-09 -0 -0 4.75672e-09 -0 4.75672e-09));
    }
    fixedWalls-top
    {
        type            symmetry;
    }
    frontAndBack
    {
        type            empty;
    }
}


// ************************************************************************* //
