/*--------------------------------*- C++ -*----------------------------------*\
  =========                 |
  \\      /  F ield         | OpenFOAM: The Open Source CFD Toolbox
   \\    /   O peration     | Website:  https://openfoam.org
    \\  /    A nd           | Version:  10
     \\/     M anipulation  |
\*---------------------------------------------------------------------------*/
FoamFile
{
    format      ascii;
    class       volScalarField;
    location    "142";
    object      k;
}
// * * * * * * * * * * * * * * * * * * * * * * * * * * * * * * * * * * * * * //

dimensions      [0 2 -2 0 0 0 0];

internalField   nonuniform List<scalar> 
200
(
2.22045e-16
2.22045e-16
2.22045e-16
2.22045e-16
3.31728e-15
3.31046e-15
3.29443e-15
3.30933e-15
2.3094e-14
2.30467e-14
2.29324e-14
2.30369e-14
8.38048e-14
8.36363e-14
8.32159e-14
8.35934e-14
2.17227e-13
2.16802e-13
2.15702e-13
2.16671e-13
4.60704e-13
4.59832e-13
4.57482e-13
4.59508e-13
8.55774e-13
8.54218e-13
8.49826e-13
8.53532e-13
1.44677e-12
1.44426e-12
1.4368e-12
1.44296e-12
2.27923e-12
2.27549e-12
2.26368e-12
2.27325e-12
3.39812e-12
3.39288e-12
3.37522e-12
3.3893e-12
4.84586e-12
4.83889e-12
4.81362e-12
4.83353e-12
6.66019e-12
6.65129e-12
6.61644e-12
6.64378e-12
8.87199e-12
8.861e-12
8.81435e-12
8.85113e-12
1.15032e-11
1.14899e-11
1.14289e-11
1.14778e-11
1.45648e-11
1.45489e-11
1.44707e-11
1.45353e-11
1.80556e-11
1.80363e-11
1.79373e-11
1.80229e-11
2.19609e-11
2.19368e-11
2.18128e-11
2.19266e-11
2.62528e-11
2.62213e-11
2.60668e-11
2.62194e-11
3.08907e-11
3.0847e-11
3.06555e-11
3.08617e-11
3.58229e-11
3.57583e-11
3.55226e-11
3.58035e-11
4.09892e-11
4.08874e-11
4.0601e-11
4.0969e-11
4.63071e-11
4.61577e-11
4.58161e-11
4.62922e-11
5.17284e-11
5.14937e-11
5.10928e-11
5.165e-11
5.71969e-11
5.67898e-11
5.6353e-11
5.69265e-11
6.25169e-11
6.20129e-11
6.15006e-11
6.21238e-11
6.76229e-11
6.70933e-11
6.6449e-11
6.71605e-11
7.243e-11
7.19977e-11
7.11175e-11
7.19766e-11
7.68335e-11
7.67439e-11
7.54384e-11
7.65467e-11
8.068e-11
8.09824e-11
7.93872e-11
8.09041e-11
8.42472e-11
8.47016e-11
8.29006e-11
8.46819e-11
8.73542e-11
8.79051e-11
8.59314e-11
8.78799e-11
8.99104e-11
9.05573e-11
8.84395e-11
9.04695e-11
9.18864e-11
9.26018e-11
9.03885e-11
9.23902e-11
9.33354e-11
9.39782e-11
9.17446e-11
9.35302e-11
9.44997e-11
9.45138e-11
9.24851e-11
9.3678e-11
9.46366e-11
9.39556e-11
9.26096e-11
9.35551e-11
9.37035e-11
9.31506e-11
9.19985e-11
9.30906e-11
9.27352e-11
9.18109e-11
9.06322e-11
9.24349e-11
9.01192e-11
9.00219e-11
8.84969e-11
9.05459e-11
8.70838e-11
8.71065e-11
8.56637e-11
8.69801e-11
8.3666e-11
8.35249e-11
8.2099e-11
8.3208e-11
8.02199e-11
7.92902e-11
7.79157e-11
7.93427e-11
7.48727e-11
7.47092e-11
7.32377e-11
7.43637e-11
6.99739e-11
6.91875e-11
6.83366e-11
6.92652e-11
6.39575e-11
6.39731e-11
6.33669e-11
6.36209e-11
5.87463e-11
5.90181e-11
5.86314e-11
5.86065e-11
5.42817e-11
5.48906e-11
5.44379e-11
5.42266e-11
5.06572e-11
5.10514e-11
5.11773e-11
5.06556e-11
4.78419e-11
4.87577e-11
4.93616e-11
4.79621e-11
4.61537e-11
4.71617e-11
4.80361e-11
4.63888e-11
)
;

boundaryField
{
    inlet
    {
        type            cyclic;
    }
    outlet
    {
        type            cyclic;
    }
    fixedWalls-bottom
    {
        type            kqRWallFunction;
        value           uniform 2.22045e-16;
    }
    fixedWalls-top
    {
        type            symmetry;
    }
    frontAndBack
    {
        type            empty;
    }
}


// ************************************************************************* //
