/*--------------------------------*- C++ -*----------------------------------*\
  =========                 |
  \\      /  F ield         | OpenFOAM: The Open Source CFD Toolbox
   \\    /   O peration     | Website:  https://openfoam.org
    \\  /    A nd           | Version:  10
     \\/     M anipulation  |
\*---------------------------------------------------------------------------*/
FoamFile
{
    format      ascii;
    class       volScalarField;
    location    "142";
    object      nut;
}
// * * * * * * * * * * * * * * * * * * * * * * * * * * * * * * * * * * * * * //

dimensions      [0 2 -1 0 0 0 0];

internalField   nonuniform List<scalar> 
200
(
9.96342e-21
9.96342e-21
9.96342e-21
9.96342e-21
9.09235e-19
9.07417e-19
9.03122e-19
9.07105e-19
1.88495e-17
1.88116e-17
1.87195e-17
1.88036e-17
1.46831e-16
1.4654e-16
1.4581e-16
1.46465e-16
6.80352e-16
6.79036e-16
6.75616e-16
6.78625e-16
2.30235e-15
2.29805e-15
2.28638e-15
2.29644e-15
6.32119e-15
6.30993e-15
6.2777e-15
6.30491e-15
1.49506e-14
1.49255e-14
1.4849e-14
1.49123e-14
3.16085e-14
3.15592e-14
3.13975e-14
3.15293e-14
6.11928e-14
6.11063e-14
6.07948e-14
6.10465e-14
1.10271e-13
1.10135e-13
1.0958e-13
1.10029e-13
1.87102e-13
1.86909e-13
1.85987e-13
1.86749e-13
3.01395e-13
3.01157e-13
2.99722e-13
3.00964e-13
4.63772e-13
4.63528e-13
4.61424e-13
4.63398e-13
6.84919e-13
6.84741e-13
6.81832e-13
6.84932e-13
9.74554e-13
9.74529e-13
9.70715e-13
9.75558e-13
1.3404e-12
1.34057e-12
1.33577e-12
1.34336e-12
1.78737e-12
1.78764e-12
1.78167e-12
1.79367e-12
2.31718e-12
2.31707e-12
2.30952e-12
2.32862e-12
2.92837e-12
2.927e-12
2.91686e-12
2.94713e-12
3.61682e-12
3.61232e-12
3.59825e-12
3.64379e-12
4.37488e-12
4.3656e-12
4.34609e-12
4.41218e-12
5.19707e-12
5.17844e-12
5.15215e-12
5.23899e-12
6.07715e-12
6.03856e-12
6.0083e-12
6.10983e-12
6.9935e-12
6.94044e-12
6.90377e-12
7.02292e-12
7.93701e-12
7.87554e-12
7.82781e-12
7.96863e-12
8.89649e-12
8.84426e-12
8.76749e-12
8.94048e-12
9.85841e-12
9.84957e-12
9.71625e-12
9.93689e-12
1.08055e-11
1.08484e-11
1.06725e-11
1.09655e-11
1.17753e-11
1.18406e-11
1.16285e-11
1.19791e-11
1.27453e-11
1.28311e-11
1.25751e-11
1.29768e-11
1.36964e-11
1.38054e-11
1.35088e-11
1.3951e-11
1.46222e-11
1.47424e-11
1.44396e-11
1.48856e-11
1.55291e-11
1.56829e-11
1.53225e-11
1.5769e-11
1.64665e-11
1.65241e-11
1.61819e-11
1.65504e-11
1.72971e-11
1.72255e-11
1.70013e-11
1.73482e-11
1.79844e-11
1.79148e-11
1.77454e-11
1.81511e-11
1.86853e-11
1.8628e-11
1.83434e-11
1.89843e-11
1.91205e-11
1.92413e-11
1.88643e-11
1.95933e-11
1.94693e-11
1.96303e-11
1.92435e-11
1.98459e-11
1.9718e-11
1.98579e-11
1.94376e-11
2.00291e-11
1.99335e-11
1.98972e-11
1.94481e-11
2.0152e-11
1.96212e-11
1.97716e-11
1.93168e-11
1.98842e-11
1.93533e-11
1.92474e-11
1.899e-11
1.94755e-11
1.84953e-11
1.86838e-11
1.84807e-11
1.87843e-11
1.78414e-11
1.79986e-11
1.78983e-11
1.81023e-11
1.71487e-11
1.74412e-11
1.73134e-11
1.74527e-11
1.65843e-11
1.68144e-11
1.68836e-11
1.69111e-11
1.6133e-11
1.65551e-11
1.67991e-11
1.65198e-11
1.58793e-11
1.63889e-11
1.67441e-11
1.63641e-11
)
;

boundaryField
{
    inlet
    {
        type            cyclic;
    }
    outlet
    {
        type            cyclic;
    }
    fixedWalls-bottom
    {
        type            nutkWallFunction;
        Cmu             0.09;
        kappa           0.41;
        E               9.8;
        value           uniform 0;
    }
    fixedWalls-top
    {
        type            symmetry;
    }
    frontAndBack
    {
        type            empty;
    }
}


// ************************************************************************* //
