/*--------------------------------*- C++ -*----------------------------------*\
  =========                 |
  \\      /  F ield         | OpenFOAM: The Open Source CFD Toolbox
   \\    /   O peration     | Website:  https://openfoam.org
    \\  /    A nd           | Version:  10
     \\/     M anipulation  |
\*---------------------------------------------------------------------------*/
FoamFile
{
    format      ascii;
    class       volScalarField;
    location    "142";
    object      omega;
}
// * * * * * * * * * * * * * * * * * * * * * * * * * * * * * * * * * * * * * //

dimensions      [0 0 -1 0 0 0 0];

internalField   nonuniform List<scalar> 
200
(
22286
22286
22286
22286
3648.43
3648.23
3647.82
3648.23
1225.18
1225.13
1225.05
1225.13
570.755
570.74
570.713
570.739
319.287
319.279
319.267
319.279
200.102
200.097
200.09
200.096
135.382
135.377
135.372
135.376
96.7696
96.7646
96.7603
96.763
72.1081
72.1022
72.0975
72.0995
55.5314
55.5242
55.5182
55.5199
43.9449
43.936
43.9279
43.9294
35.5967
35.5858
35.5747
35.576
29.4364
29.4232
29.4085
29.4093
24.8035
24.7879
24.7688
24.7688
21.265
21.2473
21.2232
21.2216
18.527
18.5077
18.4785
18.4745
16.3838
16.3638
16.3298
16.3222
14.6879
14.6681
14.6305
14.6177
13.3312
13.3129
13.2736
13.2532
12.233
12.2167
12.1784
12.1486
11.3329
11.3189
11.2835
11.2435
10.5848
10.573
10.5419
10.4919
9.95338
9.94387
9.91679
9.85876
9.41179
9.40451
9.3792
9.31719
8.93929
8.93502
8.90827
8.84588
8.51994
8.51921
8.48884
8.42811
8.14141
8.14061
8.1115
8.05064
7.7937
7.7916
7.76414
7.70329
7.46659
7.46491
7.43848
7.37808
7.15458
7.15351
7.12907
7.06914
6.85381
6.85091
6.83346
6.77207
6.56454
6.55956
6.54682
6.4848
6.28402
6.28132
6.25976
6.20668
6.01035
5.99241
5.98759
5.93127
5.73892
5.71974
5.71533
5.66015
5.47123
5.45443
5.4472
5.39279
5.21025
5.19965
5.18435
5.12864
4.96299
4.92867
4.94087
4.86902
4.71323
4.67858
4.69123
4.62128
4.47287
4.43736
4.45157
4.38278
4.24313
4.20613
4.22373
4.15436
4.02437
3.985
4.00633
3.93722
3.81591
3.77861
3.7914
3.73984
3.61561
3.59463
3.59857
3.55654
3.45804
3.42399
3.42881
3.38692
3.2927
3.27904
3.27581
3.23752
3.16535
3.14719
3.14426
3.10706
3.05452
3.03617
3.03119
2.99541
2.96548
2.94518
2.93835
2.90331
2.90653
2.87765
2.86883
2.83479
)
;

boundaryField
{
    inlet
    {
        type            cyclic;
    }
    outlet
    {
        type            cyclic;
    }
    fixedWalls-bottom
    {
        beta1           0.075;
        blended         0;
        type            omegaWallFunction;
        value           nonuniform List<scalar> 4(22286 22286 22286 22286);
    }
    fixedWalls-top
    {
        type            symmetry;
    }
    frontAndBack
    {
        type            empty;
    }
}


// ************************************************************************* //
