/*--------------------------------*- C++ -*----------------------------------*\
  =========                 |
  \\      /  F ield         | OpenFOAM: The Open Source CFD Toolbox
   \\    /   O peration     | Website:  https://openfoam.org
    \\  /    A nd           | Version:  10
     \\/     M anipulation  |
\*---------------------------------------------------------------------------*/
FoamFile
{
    format      ascii;
    class       volScalarField;
    location    "142";
    object      p;
}
// * * * * * * * * * * * * * * * * * * * * * * * * * * * * * * * * * * * * * //

dimensions      [0 2 -2 0 0 0 0];

internalField   nonuniform List<scalar> 
200
(
-2.84927e-10
8.56618e-07
-1.61153e-08
-8.74289e-07
-2.62104e-10
8.55163e-07
-1.61126e-08
-8.72822e-07
-2.15368e-10
8.53655e-07
-1.62278e-08
-8.71273e-07
-4.10699e-10
8.52538e-07
-1.62626e-08
-8.70154e-07
-3.86503e-10
8.51767e-07
-1.63662e-08
-8.69328e-07
-4.00431e-10
8.51343e-07
-1.64274e-08
-8.68879e-07
-1.9443e-10
8.51204e-07
-1.66255e-08
-8.6867e-07
-2.80611e-11
8.51411e-07
-1.68276e-08
-8.6884e-07
3.61262e-10
8.51894e-07
-1.72159e-08
-8.69251e-07
7.63158e-10
8.52708e-07
-1.76597e-08
-8.7002e-07
1.43173e-09
8.53748e-07
-1.83461e-08
-8.70986e-07
2.18882e-09
8.55047e-07
-1.91541e-08
-8.72235e-07
3.27006e-09
8.56467e-07
-2.02675e-08
-8.73582e-07
4.52886e-09
8.57991e-07
-2.15832e-08
-8.75051e-07
6.17571e-09
8.5945e-07
-2.32709e-08
-8.76438e-07
8.0872e-09
8.60766e-07
-2.52437e-08
-8.77695e-07
1.0451e-08
8.61727e-07
-2.76538e-08
-8.78584e-07
1.31686e-08
8.62167e-07
-3.04359e-08
-8.78963e-07
1.6402e-08
8.61832e-07
-3.37194e-08
-8.78559e-07
2.00747e-08
8.60463e-07
-3.74587e-08
-8.77129e-07
2.43292e-08
8.57754e-07
-4.17655e-08
-8.74356e-07
2.91096e-08
8.5334e-07
-4.6614e-08
-8.69882e-07
3.45452e-08
8.46866e-07
-5.21041e-08
-8.63349e-07
4.06046e-08
8.37868e-07
-5.82319e-08
-8.54298e-07
4.74128e-08
8.25951e-07
-6.50955e-08
-8.4233e-07
5.49564e-08
8.10569e-07
-7.27071e-08
-8.26901e-07
6.33708e-08
7.91302e-07
-8.11776e-08
-8.07593e-07
7.26665e-08
7.67557e-07
-9.05395e-08
-7.8381e-07
8.29972e-08
7.38924e-07
-1.00926e-07
-7.55146e-07
9.43879e-08
7.04821e-07
-1.1238e-07
-7.21013e-07
1.07025e-07
6.6489e-07
-1.2507e-07
-6.81059e-07
1.20948e-07
6.18628e-07
-1.3905e-07
-6.34774e-07
1.36375e-07
5.65802e-07
-1.54525e-07
-5.8193e-07
1.53351e-07
5.06096e-07
-1.71552e-07
-5.22203e-07
1.72122e-07
4.39478e-07
-1.90364e-07
-4.5557e-07
1.92716e-07
3.65932e-07
-2.11002e-07
-3.82002e-07
2.1538e-07
2.85743e-07
-2.33699e-07
-3.01799e-07
2.40096e-07
1.9934e-07
-2.58455e-07
-2.15374e-07
2.67047e-07
1.0744e-07
-2.85433e-07
-1.23469e-07
2.96087e-07
1.10658e-08
-3.14516e-07
-2.70773e-08
3.27235e-07
-8.85079e-08
-3.45694e-07
7.24876e-08
3.60114e-07
-1.89559e-07
-3.78626e-07
1.73538e-07
3.9441e-07
-2.90147e-07
-4.12964e-07
2.74093e-07
4.29392e-07
-3.87832e-07
-4.48016e-07
3.71746e-07
4.64323e-07
-4.79956e-07
-4.83015e-07
4.63806e-07
4.98074e-07
-5.63251e-07
-5.16854e-07
5.47029e-07
5.28975e-07
-6.33703e-07
-5.47843e-07
6.17396e-07
5.53891e-07
-6.86463e-07
-5.72838e-07
6.7008e-07
5.68521e-07
-7.18544e-07
-5.87518e-07
7.02105e-07
5.75552e-07
-7.40574e-07
-5.94562e-07
7.24129e-07
)
;

boundaryField
{
    inlet
    {
        type            cyclic;
    }
    outlet
    {
        type            cyclic;
    }
    fixedWalls-bottom
    {
        type            zeroGradient;
    }
    fixedWalls-top
    {
        type            symmetry;
    }
    frontAndBack
    {
        type            empty;
    }
}


// ************************************************************************* //
