/*--------------------------------*- C++ -*----------------------------------*\
  =========                 |
  \\      /  F ield         | OpenFOAM: The Open Source CFD Toolbox
   \\    /   O peration     | Website:  https://openfoam.org
    \\  /    A nd           | Version:  10
     \\/     M anipulation  |
\*---------------------------------------------------------------------------*/
FoamFile
{
    format      ascii;
    class       surfaceScalarField;
    location    "142";
    object      phi;
}
// * * * * * * * * * * * * * * * * * * * * * * * * * * * * * * * * * * * * * //

dimensions      [0 3 -1 0 0 0 0];

internalField   nonuniform List<scalar> 
346
(
0.00025541
1.17488e-09
0.000255412
-1.77006e-09
0.000255412
-9.57745e-11
1.70751e-09
0.000790854
1.25393e-09
0.000790859
-6.39869e-09
0.000790859
-3.79968e-10
6.20449e-09
0.00136706
1.45628e-09
0.00136707
-1.32756e-08
0.00136707
-6.35311e-10
1.30015e-08
0.00198619
1.62872e-09
0.0019862
-2.22689e-08
0.0019862
-8.93649e-10
2.18902e-08
0.00265048
1.72841e-09
0.00265049
-3.27598e-08
0.00265049
-1.02225e-09
3.23308e-08
0.00336225
1.71089e-09
0.00336226
-4.45914e-08
0.00336226
-1.02897e-09
4.40859e-08
0.00412388
1.34609e-09
0.00412389
-5.70311e-08
0.00412389
-6.79542e-10
5.6496e-08
0.00493785
5.87878e-10
0.00493786
-6.9896e-08
0.00493786
8.0998e-11
6.9309e-08
0.00580668
-9.46173e-10
0.00580669
-8.23962e-08
0.00580669
1.60842e-09
8.17899e-08
0.00673298
-3.34529e-09
0.00673299
-9.43747e-08
0.00673299
4.01809e-09
9.37375e-08
0.00771942
-7.11683e-09
0.00771943
-1.0505e-07
0.00771943
7.78579e-09
1.04401e-07
0.00876873
-1.2404e-08
0.00876874
-1.14345e-07
0.00876873
1.30819e-08
1.13683e-07
0.00988368
-1.97996e-08
0.00988369
-1.21558e-07
0.00988368
2.04779e-08
1.20884e-07
0.0110671
-2.94699e-08
0.0110671
-1.26748e-07
0.0110671
3.01512e-08
1.26078e-07
0.0123219
-4.20338e-08
0.0123219
-1.29357e-07
0.0123219
4.27167e-08
1.28675e-07
0.0136509
-5.76238e-08
0.0136509
-1.29625e-07
0.0136509
5.8301e-08
1.28962e-07
0.0150571
-7.68102e-08
0.0150571
-1.27176e-07
0.0150571
7.74927e-08
1.26498e-07
0.0165434
-9.96135e-08
0.0165433
-1.22443e-07
0.0165433
1.00281e-07
1.21796e-07
0.0181126
-1.26478e-07
0.0181126
-1.15239e-07
0.0181125
1.27152e-07
1.14575e-07
0.0197677
-1.57228e-07
0.0197677
-1.06165e-07
0.0197676
1.57878e-07
1.05545e-07
0.0215114
-1.92114e-07
0.0215114
-9.52004e-08
0.0215114
1.92772e-07
9.45586e-08
0.0233466
-2.30716e-07
0.0233466
-8.30476e-08
0.0233466
2.31342e-07
8.24607e-08
0.0252759
-2.73046e-07
0.0252759
-6.979e-08
0.0252758
2.73681e-07
6.91788e-08
0.0273018
-3.18418e-07
0.0273018
-5.61549e-08
0.0273017
3.19011e-07
5.56095e-08
0.0294267
-3.66577e-07
0.0294266
-4.22652e-08
0.0294266
3.67183e-07
4.16882e-08
0.0316527
-4.16646e-07
0.0316526
-2.87758e-08
0.0316526
4.17203e-07
2.82757e-08
0.0339817
-4.68119e-07
0.0339817
-1.5787e-08
0.0339816
4.6869e-07
1.52499e-08
0.0364154
-5.19994e-07
0.0364154
-3.82537e-09
0.0364153
5.20508e-07
3.3783e-09
0.038955
-5.7153e-07
0.038955
7.06856e-09
0.038955
5.72069e-07
-7.57169e-09
0.0416015
-6.21768e-07
0.0416015
1.65287e-08
0.0416014
6.22242e-07
-1.69279e-08
0.0443551
-6.69765e-07
0.0443551
2.45828e-08
0.0443551
6.70272e-07
-2.50525e-08
0.0472158
-7.14685e-07
0.0472158
3.09967e-08
0.0472158
7.15113e-07
-3.13449e-08
0.0501827
-7.55402e-07
0.0501827
3.58394e-08
0.0501827
7.55886e-07
-3.62858e-08
0.0532543
-7.91292e-07
0.0532543
3.89812e-08
0.0532543
7.91684e-07
-3.92889e-08
0.0564283
-8.21056e-07
0.0564283
4.04991e-08
0.0564283
8.21518e-07
-4.09253e-08
0.0597012
-8.44253e-07
0.0597012
4.03234e-08
0.0597012
8.44599e-07
-4.05889e-08
0.0630688
-8.59409e-07
0.0630688
3.85187e-08
0.0630688
8.59855e-07
-3.89293e-08
0.0665253
-8.66188e-07
0.0665253
3.51014e-08
0.0665253
8.66492e-07
-3.53311e-08
0.0700638
-8.62946e-07
0.0700638
3.01501e-08
0.0700638
8.63396e-07
-3.05682e-08
0.0736757
-8.49372e-07
0.0736757
2.38237e-08
0.0736757
8.4966e-07
-2.4052e-08
0.0773506
-8.23724e-07
0.0773506
1.63008e-08
0.0773506
8.24168e-07
-1.67166e-08
0.0810762
-7.85587e-07
0.0810762
7.94822e-09
0.0810762
7.85867e-07
-8.18408e-09
0.084838
-7.33269e-07
0.084838
-8.79199e-10
0.084838
7.33688e-07
4.82454e-10
0.0886189
-6.66269e-07
0.0886189
-9.65193e-09
0.088619
6.66554e-07
9.39276e-09
0.0923992
-5.83285e-07
0.0923992
-1.79686e-08
0.0923993
5.83601e-07
1.7667e-08
0.096156
-4.84104e-07
0.096156
-2.54932e-08
0.0961561
4.84315e-07
2.52943e-08
0.0998629
-3.69155e-07
0.0998629
-3.18452e-08
0.099863
3.69289e-07
3.17169e-08
0.10349
-2.42091e-07
0.10349
-3.42981e-08
0.10349
2.42092e-07
3.42986e-08
0.107002
-1.17087e-07
0.107002
-1.5414e-08
0.107002
1.1705e-07
1.54509e-08
0.11036
0.11036
0.11036
)
;

boundaryField
{
    inlet
    {
        type            cyclic;
        value           nonuniform List<scalar> 
50
(
-0.11036
-0.107002
-0.10349
-0.099863
-0.0961561
-0.0923993
-0.088619
-0.084838
-0.0810762
-0.0773506
-0.0736757
-0.0700638
-0.0665253
-0.0630688
-0.0597012
-0.0564283
-0.0532543
-0.0501827
-0.0472158
-0.0443551
-0.0416014
-0.038955
-0.0364153
-0.0339816
-0.0316526
-0.0294266
-0.0273018
-0.0252759
-0.0233466
-0.0215114
-0.0197676
-0.0181126
-0.0165433
-0.0150571
-0.0136509
-0.0123219
-0.0110671
-0.00988368
-0.00876872
-0.00771942
-0.00673298
-0.00580668
-0.00493785
-0.00412388
-0.00336225
-0.00265048
-0.00198619
-0.00136706
-0.000790855
-0.00025541
)
;
    }
    outlet
    {
        type            cyclic;
        value           nonuniform List<scalar> 
50
(
0.11036
0.107002
0.10349
0.099863
0.0961561
0.0923993
0.088619
0.084838
0.0810762
0.0773506
0.0736757
0.0700638
0.0665253
0.0630688
0.0597012
0.0564283
0.0532543
0.0501827
0.0472158
0.0443551
0.0416014
0.038955
0.0364153
0.0339816
0.0316526
0.0294266
0.0273018
0.0252759
0.0233466
0.0215114
0.0197676
0.0181126
0.0165433
0.0150571
0.0136509
0.0123219
0.0110671
0.00988368
0.00876872
0.00771942
0.00673298
0.00580668
0.00493785
0.00412388
0.00336225
0.00265048
0.00198619
0.00136706
0.000790855
0.00025541
)
;
    }
    fixedWalls-bottom
    {
        type            calculated;
        value           uniform 0;
    }
    fixedWalls-top
    {
        type            symmetry;
        value           uniform 0;
    }
    frontAndBack
    {
        type            empty;
        value           nonuniform List<scalar> 0();
    }
}


// ************************************************************************* //
