/*--------------------------------*- C++ -*----------------------------------*\
  =========                 |
  \\      /  F ield         | OpenFOAM: The Open Source CFD Toolbox
   \\    /   O peration     | Website:  https://openfoam.org
    \\  /    A nd           | Version:  10
     \\/     M anipulation  |
\*---------------------------------------------------------------------------*/
FoamFile
{
    format      ascii;
    class       volSymmTensorField;
    location    "142";
    object      R;
}
// * * * * * * * * * * * * * * * * * * * * * * * * * * * * * * * * * * * * * //

dimensions      [0 2 -2 0 0 0 0];

internalField   nonuniform List<symmTensor> 
200
(
(1.4803e-16 -2.98445e-20 -0 1.4803e-16 -0 1.4803e-16)
(1.4803e-16 -2.98446e-20 -0 1.4803e-16 -0 1.4803e-16)
(1.4803e-16 -2.98449e-20 -0 1.4803e-16 -0 1.4803e-16)
(1.4803e-16 -2.98446e-20 -0 1.4803e-16 -0 1.4803e-16)
(2.21152e-15 -2.69798e-18 -0 2.21152e-15 -0 2.21152e-15)
(2.20697e-15 -2.69259e-18 -0 2.20697e-15 -0 2.20697e-15)
(2.19629e-15 -2.67987e-18 -0 2.19629e-15 -0 2.19629e-15)
(2.20622e-15 -2.69167e-18 -0 2.20622e-15 -0 2.20622e-15)
(1.5396e-14 -5.53863e-17 -0 1.5396e-14 -0 1.5396e-14)
(1.53645e-14 -5.52748e-17 -0 1.53645e-14 -0 1.53645e-14)
(1.52883e-14 -5.50047e-17 -0 1.52883e-14 -0 1.52883e-14)
(1.53579e-14 -5.52514e-17 -0 1.53579e-14 -0 1.53579e-14)
(5.58698e-14 -4.27056e-16 -0 5.58698e-14 -0 5.58698e-14)
(5.57575e-14 -4.26208e-16 -0 5.57575e-14 -0 5.57575e-14)
(5.54773e-14 -4.24088e-16 -0 5.54773e-14 -0 5.54773e-14)
(5.57289e-14 -4.2599e-16 -0 5.57289e-14 -0 5.57289e-14)
(1.44818e-13 -1.95784e-15 -0 1.44818e-13 -0 1.44818e-13)
(1.44535e-13 -1.95406e-15 -0 1.44535e-13 -0 1.44535e-13)
(1.43802e-13 -1.94422e-15 -0 1.43802e-13 -0 1.43802e-13)
(1.44447e-13 -1.95287e-15 -0 1.44447e-13 -0 1.44447e-13)
(3.07136e-13 -6.55243e-15 -0 3.07136e-13 -0 3.07136e-13)
(3.06555e-13 -6.54019e-15 -0 3.06555e-13 -0 3.06555e-13)
(3.04988e-13 -6.50701e-15 -0 3.04988e-13 -0 3.04988e-13)
(3.06339e-13 -6.5356e-15 -0 3.06339e-13 -0 3.06339e-13)
(5.70516e-13 -1.77835e-14 -0 5.70516e-13 -0 5.70516e-13)
(5.69479e-13 -1.77517e-14 -0 5.69479e-13 -0 5.69479e-13)
(5.6655e-13 -1.76611e-14 -0 5.6655e-13 -0 5.6655e-13)
(5.69022e-13 -1.77376e-14 -0 5.69022e-13 -0 5.69022e-13)
(9.64512e-13 -4.15577e-14 -0 9.64512e-13 -0 9.64512e-13)
(9.6284e-13 -4.14877e-14 -0 9.6284e-13 -0 9.6284e-13)
(9.57864e-13 -4.12752e-14 -0 9.57864e-13 -0 9.57864e-13)
(9.61975e-13 -4.14511e-14 -0 9.61975e-13 -0 9.61975e-13)
(1.51949e-12 -8.67657e-14 -0 1.51949e-12 -0 1.51949e-12)
(1.51699e-12 -8.66301e-14 -0 1.51699e-12 -0 1.51699e-12)
(1.50912e-12 -8.61863e-14 -0 1.50912e-12 -0 1.50912e-12)
(1.5155e-12 -8.65479e-14 -0 1.5155e-12 -0 1.5155e-12)
(2.26541e-12 -1.65792e-13 -0 2.26541e-12 -0 2.26541e-12)
(2.26192e-12 -1.65557e-13 -0 2.26192e-12 -0 2.26192e-12)
(2.25014e-12 -1.64713e-13 -0 2.25014e-12 -0 2.25014e-12)
(2.25953e-12 -1.65395e-13 -0 2.25953e-12 -0 2.25953e-12)
(3.23057e-12 -2.94714e-13 -0 3.23057e-12 -0 3.23057e-12)
(3.22592e-12 -2.94348e-13 -0 3.22593e-12 -0 3.22593e-12)
(3.20908e-12 -2.92865e-13 -0 3.20908e-12 -0 3.20908e-12)
(3.22235e-12 -2.94065e-13 -0 3.22235e-12 -0 3.22235e-12)
(4.44013e-12 -4.92981e-13 -0 4.44013e-12 -0 4.44013e-12)
(4.43419e-12 -4.92472e-13 -0 4.43419e-12 -0 4.43419e-12)
(4.41096e-12 -4.90043e-13 -0 4.41096e-12 -0 4.41096e-12)
(4.42919e-12 -4.92049e-13 -0 4.42919e-12 -0 4.42919e-12)
(5.91466e-12 -7.82406e-13 -0 5.91466e-12 -0 5.91466e-12)
(5.90734e-12 -7.81786e-13 -0 5.90734e-12 -0 5.90734e-12)
(5.87623e-12 -7.78058e-13 -0 5.87623e-12 -0 5.87623e-12)
(5.90076e-12 -7.81281e-13 -0 5.90075e-12 -0 5.90076e-12)
(7.66879e-12 -1.18538e-12 -0 7.66879e-12 -0 7.66879e-12)
(7.65994e-12 -1.18475e-12 -0 7.65994e-12 -0 7.65994e-12)
(7.61929e-12 -1.17937e-12 -0 7.61929e-12 -0 7.61929e-12)
(7.65188e-12 -1.18441e-12 -0 7.65188e-12 -0 7.65188e-12)
(9.70988e-12 -1.72242e-12 -0 9.70988e-12 -0 9.70988e-12)
(9.69926e-12 -1.72197e-12 -0 9.69926e-12 -0 9.69926e-12)
(9.64712e-12 -1.71465e-12 -0 9.64712e-12 -0 9.64712e-12)
(9.69022e-12 -1.72245e-12 -0 9.69022e-12 -0 9.69022e-12)
(1.20371e-11 -2.40954e-12 -0 1.20371e-11 -0 1.20371e-11)
(1.20242e-11 -2.40948e-12 -0 1.20242e-11 -0 1.20242e-11)
(1.19582e-11 -2.40004e-12 -0 1.19582e-11 -0 1.19582e-11)
(1.20153e-11 -2.41201e-12 -0 1.20153e-11 -0 1.20153e-11)
(1.46406e-11 -3.25572e-12 -0 1.46406e-11 -0 1.46406e-11)
(1.46245e-11 -3.25614e-12 -0 1.46245e-11 -0 1.46245e-11)
(1.45419e-11 -3.24446e-12 -0 1.45418e-11 -0 1.45419e-11)
(1.46177e-11 -3.26289e-12 -0 1.46177e-11 -0 1.46177e-11)
(1.75019e-11 -4.26137e-12 -0 1.75019e-11 -0 1.75019e-11)
(1.74809e-11 -4.26199e-12 -0 1.74809e-11 -0 1.74809e-11)
(1.73779e-11 -4.24775e-12 -0 1.73779e-11 -0 1.73779e-11)
(1.74796e-11 -4.27636e-12 -0 1.74796e-11 -0 1.74796e-11)
(2.05938e-11 -5.41783e-12 -0 2.05938e-11 -0 2.05938e-11)
(2.05647e-11 -5.41758e-12 -0 2.05647e-11 -0 2.05647e-11)
(2.0437e-11 -5.39989e-12 -0 2.0437e-11 -0 2.0437e-11)
(2.05745e-11 -5.44455e-12 -0 2.05745e-11 -0 2.05745e-11)
(2.38819e-11 -6.70826e-12 -0 2.38819e-11 -0 2.38819e-11)
(2.38389e-11 -6.70513e-12 -0 2.38389e-11 -0 2.38389e-11)
(2.36817e-11 -6.68186e-12 -0 2.36817e-11 -0 2.36817e-11)
(2.3869e-11 -6.75119e-12 -0 2.3869e-11 -0 2.3869e-11)
(2.73261e-11 -8.10935e-12 -0 2.73262e-11 -0 2.73262e-11)
(2.72582e-11 -8.09926e-12 -0 2.72582e-11 -0 2.72582e-11)
(2.70674e-11 -8.0677e-12 -0 2.70673e-11 -0 2.70674e-11)
(2.73126e-11 -8.16979e-12 -0 2.73127e-11 -0 2.73127e-11)
(3.08714e-11 -9.59015e-12 -0 3.08715e-11 -0 3.08714e-11)
(3.07718e-11 -9.56983e-12 -0 3.07718e-11 -0 3.07718e-11)
(3.05441e-11 -9.52703e-12 -0 3.0544e-11 -0 3.05441e-11)
(3.08614e-11 -9.67188e-12 -0 3.08615e-11 -0 3.08614e-11)
(3.44856e-11 -1.11252e-11 -0 3.44856e-11 -0 3.44856e-11)
(3.43292e-11 -1.10853e-11 -0 3.43291e-11 -0 3.43291e-11)
(3.40619e-11 -1.1029e-11 -0 3.40618e-11 -0 3.40619e-11)
(3.44333e-11 -1.12149e-11 -0 3.44333e-11 -0 3.44333e-11)
(3.81312e-11 -1.26879e-11 -0 3.81313e-11 -0 3.81312e-11)
(3.78598e-11 -1.26074e-11 -0 3.78598e-11 -0 3.78598e-11)
(3.75687e-11 -1.25442e-11 -0 3.75687e-11 -0 3.75687e-11)
(3.7951e-11 -1.27562e-11 -0 3.7951e-11 -0 3.7951e-11)
(4.16779e-11 -1.42211e-11 -0 4.1678e-11 -0 4.16779e-11)
(4.1342e-11 -1.41133e-11 -0 4.13419e-11 -0 4.1342e-11)
(4.10005e-11 -1.40387e-11 -0 4.10004e-11 -0 4.10004e-11)
(4.14159e-11 -1.4281e-11 -0 4.14159e-11 -0 4.14159e-11)
(4.50819e-11 -1.56965e-11 -0 4.5082e-11 -0 4.50819e-11)
(4.47289e-11 -1.5575e-11 -0 4.47289e-11 -0 4.47289e-11)
(4.42994e-11 -1.54806e-11 -0 4.42993e-11 -0 4.42993e-11)
(4.47736e-11 -1.57591e-11 -0 4.47737e-11 -0 4.47736e-11)
(4.82866e-11 -1.70834e-11 -0 4.82867e-11 -0 4.82866e-11)
(4.79984e-11 -1.69831e-11 -0 4.79984e-11 -0 4.79984e-11)
(4.74117e-11 -1.68357e-11 -0 4.74116e-11 -0 4.74117e-11)
(4.79844e-11 -1.71679e-11 -0 4.79844e-11 -0 4.79844e-11)
(5.12223e-11 -1.83489e-11 -0 5.12224e-11 -0 5.12223e-11)
(5.11626e-11 -1.83325e-11 -0 5.11626e-11 -0 5.11626e-11)
(5.02923e-11 -1.80843e-11 -0 5.02922e-11 -0 5.02922e-11)
(5.10311e-11 -1.8495e-11 -0 5.10311e-11 -0 5.10311e-11)
(5.37866e-11 -1.94565e-11 -0 5.37867e-11 -0 5.37867e-11)
(5.39883e-11 -1.95338e-11 -0 5.39883e-11 -0 5.39883e-11)
(5.29249e-11 -1.92171e-11 -0 5.29247e-11 -0 5.29248e-11)
(5.3936e-11 -1.97446e-11 -0 5.39361e-11 -0 5.39361e-11)
(5.61647e-11 -2.04689e-11 -0 5.61649e-11 -0 5.61648e-11)
(5.64677e-11 -2.05824e-11 -0 5.64677e-11 -0 5.64677e-11)
(5.52671e-11 -2.02139e-11 -0 5.5267e-11 -0 5.52671e-11)
(5.64546e-11 -2.08233e-11 -0 5.64546e-11 -0 5.64546e-11)
(5.82361e-11 -2.13389e-11 -0 5.82362e-11 -0 5.82361e-11)
(5.86034e-11 -2.14826e-11 -0 5.86034e-11 -0 5.86034e-11)
(5.72876e-11 -2.10539e-11 -0 5.72875e-11 -0 5.72876e-11)
(5.85866e-11 -2.17266e-11 -0 5.85866e-11 -0 5.85866e-11)
(5.99402e-11 -2.20296e-11 -0 5.99403e-11 -0 5.99403e-11)
(6.03716e-11 -2.2205e-11 -0 6.03715e-11 -0 6.03715e-11)
(5.89597e-11 -2.17279e-11 -0 5.89596e-11 -0 5.89597e-11)
(6.0313e-11 -2.24393e-11 -0 6.0313e-11 -0 6.0313e-11)
(6.12576e-11 -2.25295e-11 -0 6.12577e-11 -0 6.12576e-11)
(6.17345e-11 -2.27146e-11 -0 6.17345e-11 -0 6.17345e-11)
(6.0259e-11 -2.22481e-11 -0 6.02589e-11 -0 6.0259e-11)
(6.15934e-11 -2.29354e-11 -0 6.15934e-11 -0 6.15934e-11)
(6.22235e-11 -2.28468e-11 -0 6.22236e-11 -0 6.22236e-11)
(6.26521e-11 -2.30731e-11 -0 6.26521e-11 -0 6.26521e-11)
(6.11631e-11 -2.25429e-11 -0 6.1163e-11 -0 6.1163e-11)
(6.23535e-11 -2.32e-11 -0 6.23535e-11 -0 6.23535e-11)
(6.29998e-11 -2.3049e-11 -0 6.29998e-11 -0 6.29998e-11)
(6.30092e-11 -2.31297e-11 -0 6.30092e-11 -0 6.30092e-11)
(6.16568e-11 -2.26507e-11 -0 6.16567e-11 -0 6.16567e-11)
(6.2452e-11 -2.31667e-11 -0 6.2452e-11 -0 6.2452e-11)
(6.30911e-11 -2.2941e-11 -0 6.30911e-11 -0 6.30911e-11)
(6.2637e-11 -2.2846e-11 -0 6.2637e-11 -0 6.2637e-11)
(6.17397e-11 -2.25487e-11 -0 6.17397e-11 -0 6.17397e-11)
(6.23701e-11 -2.30089e-11 -0 6.23701e-11 -0 6.23701e-11)
(6.24689e-11 -2.24944e-11 -0 6.2469e-11 -0 6.2469e-11)
(6.21004e-11 -2.24073e-11 -0 6.21004e-11 -0 6.21004e-11)
(6.13323e-11 -2.21955e-11 -0 6.13323e-11 -0 6.13323e-11)
(6.20604e-11 -2.27032e-11 -0 6.20604e-11 -0 6.20604e-11)
(6.18235e-11 -2.19207e-11 -0 6.18235e-11 -0 6.18235e-11)
(6.12073e-11 -2.18534e-11 -0 6.12073e-11 -0 6.12073e-11)
(6.04215e-11 -2.15196e-11 -0 6.04215e-11 -0 6.04215e-11)
(6.16233e-11 -2.22717e-11 -0 6.16233e-11 -0 6.16233e-11)
(6.00795e-11 -2.09055e-11 -0 6.00795e-11 -0 6.00795e-11)
(6.00146e-11 -2.10376e-11 -0 6.00146e-11 -0 6.00146e-11)
(5.89979e-11 -2.06255e-11 -0 5.89979e-11 -0 5.89979e-11)
(6.03639e-11 -2.14226e-11 -0 6.03639e-11 -0 6.03639e-11)
(5.80559e-11 -1.96899e-11 -0 5.80558e-11 -0 5.80559e-11)
(5.8071e-11 -1.98527e-11 -0 5.8071e-11 -0 5.8071e-11)
(5.71091e-11 -1.94615e-11 -0 5.71091e-11 -0 5.71091e-11)
(5.79867e-11 -2.0071e-11 -0 5.79867e-11 -0 5.79867e-11)
(5.57774e-11 -1.82786e-11 -0 5.57773e-11 -0 5.57773e-11)
(5.56832e-11 -1.84083e-11 -0 5.56833e-11 -0 5.56832e-11)
(5.47326e-11 -1.80187e-11 -0 5.47327e-11 -0 5.47327e-11)
(5.5472e-11 -1.85672e-11 -0 5.5472e-11 -0 5.5472e-11)
(5.348e-11 -1.67504e-11 -0 5.34799e-11 -0 5.348e-11)
(5.28601e-11 -1.67198e-11 -0 5.28601e-11 -0 5.28601e-11)
(5.19437e-11 -1.63425e-11 -0 5.19438e-11 -0 5.19438e-11)
(5.28952e-11 -1.69341e-11 -0 5.28951e-11 -0 5.28951e-11)
(4.99152e-11 -1.47391e-11 -0 4.99151e-11 -0 4.99151e-11)
(4.98061e-11 -1.48521e-11 -0 4.98062e-11 -0 4.98062e-11)
(4.8825e-11 -1.45105e-11 -0 4.88252e-11 -0 4.88251e-11)
(4.95758e-11 -1.49369e-11 -0 4.95758e-11 -0 4.95758e-11)
(4.66494e-11 -1.27643e-11 -0 4.66492e-11 -0 4.66493e-11)
(4.6125e-11 -1.26945e-11 -0 4.6125e-11 -0 4.6125e-11)
(4.55577e-11 -1.25247e-11 -0 4.55578e-11 -0 4.55577e-11)
(4.61768e-11 -1.28451e-11 -0 4.61768e-11 -0 4.61768e-11)
(4.26384e-11 -1.04558e-11 -0 4.26382e-11 -0 4.26383e-11)
(4.26487e-11 -1.05623e-11 -0 4.26488e-11 -0 4.26488e-11)
(4.22445e-11 -1.04476e-11 -0 4.22447e-11 -0 4.22446e-11)
(4.24139e-11 -1.06193e-11 -0 4.24139e-11 -0 4.24139e-11)
(3.91643e-11 -8.35756e-12 -0 3.91641e-11 -0 3.91642e-11)
(3.93454e-11 -8.43116e-12 -0 3.93454e-11 -0 3.93454e-11)
(3.90875e-11 -8.3842e-12 -0 3.90877e-11 -0 3.90876e-11)
(3.9071e-11 -8.4799e-12 -0 3.9071e-11 -0 3.9071e-11)
(3.61879e-11 -6.32459e-12 -0 3.61877e-11 -0 3.61878e-11)
(3.65937e-11 -6.43238e-12 -0 3.65937e-11 -0 3.65937e-11)
(3.62918e-11 -6.38529e-12 -0 3.6292e-11 -0 3.62919e-11)
(3.61511e-11 -6.43677e-12 -0 3.61511e-11 -0 3.61511e-11)
(3.37716e-11 -4.41717e-12 -0 3.37713e-11 -0 3.37714e-11)
(3.40343e-11 -4.47834e-12 -0 3.40343e-11 -0 3.40343e-11)
(3.41181e-11 -4.49672e-12 -0 3.41183e-11 -0 3.41182e-11)
(3.37704e-11 -4.50408e-12 -0 3.37704e-11 -0 3.37704e-11)
(3.18947e-11 -2.59605e-12 -0 3.18945e-11 -0 3.18946e-11)
(3.25051e-11 -2.66394e-12 -0 3.25051e-11 -0 3.25051e-11)
(3.29076e-11 -2.70311e-12 -0 3.29078e-11 -0 3.29077e-11)
(3.19747e-11 -2.65815e-12 -0 3.19747e-11 -0 3.19747e-11)
(3.07693e-11 -8.53016e-13 -0 3.07691e-11 -0 3.07692e-11)
(3.14411e-11 -8.80441e-13 -0 3.14411e-11 -0 3.14411e-11)
(3.20239e-11 -8.99479e-13 -0 3.20242e-11 -0 3.20241e-11)
(3.09259e-11 -8.79036e-13 -0 3.09259e-11 -0 3.09259e-11)
)
;

boundaryField
{
    inlet
    {
        type            cyclic;
    }
    outlet
    {
        type            cyclic;
    }
    fixedWalls-bottom
    {
        type            kqRWallFunction;
        value           uniform (1.4803e-16 -0 -0 1.4803e-16 -0 1.4803e-16);
    }
    fixedWalls-top
    {
        type            symmetry;
    }
    frontAndBack
    {
        type            empty;
    }
}


// ************************************************************************* //
