/*--------------------------------*- C++ -*----------------------------------*\
  =========                 |
  \\      /  F ield         | OpenFOAM: The Open Source CFD Toolbox
   \\    /   O peration     | Website:  https://openfoam.org
    \\  /    A nd           | Version:  10
     \\/     M anipulation  |
\*---------------------------------------------------------------------------*/
FoamFile
{
    format      ascii;
    class       volVectorField;
    location    "142";
    object      U;
}
// * * * * * * * * * * * * * * * * * * * * * * * * * * * * * * * * * * * * * //

dimensions      [0 1 -1 0 0 0 0];

internalField   nonuniform List<vector> 
200
(
(0.0138618 3.01207e-10 0)
(0.0138618 -4.58674e-10 0)
(0.0138619 -7.94774e-11 0)
(0.0138618 4.09088e-10 0)
(0.0417243 1.51966e-09 0)
(0.0417245 -3.55325e-09 0)
(0.0417248 -1.90376e-10 0)
(0.0417245 3.44415e-09 0)
(0.0701122 1.35937e-09 0)
(0.0701124 -9.34071e-09 0)
(0.0701129 -5.03716e-10 0)
(0.0701124 9.1012e-09 0)
(0.0990239 1.60205e-09 0)
(0.0990241 -1.7361e-08 0)
(0.0990248 -7.6826e-10 0)
(0.0990241 1.70341e-08 0)
(0.128457 1.73933e-09 0)
(0.128457 -2.72329e-08 0)
(0.128458 -9.86618e-10 0)
(0.128457 2.68265e-08 0)
(0.158407 1.78744e-09 0)
(0.158408 -3.85166e-08 0)
(0.158408 -1.08172e-09 0)
(0.158407 3.80459e-08 0)
(0.188871 1.62143e-09 0)
(0.188871 -5.07745e-08 0)
(0.188872 -9.46034e-10 0)
(0.188871 5.02502e-08 0)
(0.219841 1.09679e-09 0)
(0.219841 -6.3544e-08 0)
(0.219842 -4.33861e-10 0)
(0.219841 6.29788e-08 0)
(0.251312 7.95971e-12 0)
(0.251312 -7.6344e-08 0)
(0.251313 6.54271e-10 0)
(0.251312 7.57441e-08 0)
(0.283273 -1.89664e-09 0)
(0.283273 -8.86894e-08 0)
(0.283274 2.5603e-09 0)
(0.283273 8.80645e-08 0)
(0.315715 -4.90412e-09 0)
(0.315715 -1.00116e-07 0)
(0.315716 5.57394e-09 0)
(0.315715 9.94707e-08 0)
(0.348627 -9.35743e-09 0)
(0.348627 -1.1018e-07 0)
(0.348628 1.00296e-08 0)
(0.348626 1.09522e-07 0)
(0.381994 -1.56124e-08 0)
(0.381993 -1.185e-07 0)
(0.381994 1.6291e-08 0)
(0.381993 1.17831e-07 0)
(0.415801 -2.40682e-08 0)
(0.4158 -1.24738e-07 0)
(0.415801 2.4748e-08 0)
(0.415799 1.24064e-07 0)
(0.45003 -3.51058e-08 0)
(0.450029 -1.28659e-07 0)
(0.45003 3.57886e-08 0)
(0.450028 1.27982e-07 0)
(0.484662 -4.91215e-08 0)
(0.484661 -1.30084e-07 0)
(0.484662 4.98018e-08 0)
(0.48466 1.2941e-07 0)
(0.519674 -6.64555e-08 0)
(0.519674 -1.28965e-07 0)
(0.519674 6.71357e-08 0)
(0.519672 1.28294e-07 0)
(0.555043 -8.74241e-08 0)
(0.555042 -1.25313e-07 0)
(0.555042 8.8099e-08 0)
(0.55504 1.24649e-07 0)
(0.59074 -1.12247e-07 0)
(0.590739 -1.19271e-07 0)
(0.590739 1.12918e-07 0)
(0.590737 1.18616e-07 0)
(0.626735 -1.41079e-07 0)
(0.626735 -1.11033e-07 0)
(0.626735 1.41741e-07 0)
(0.626733 1.1039e-07 0)
(0.662996 -1.73944e-07 0)
(0.662996 -1.00911e-07 0)
(0.662996 1.74597e-07 0)
(0.662994 1.00281e-07 0)
(0.699486 -2.10772e-07 0)
(0.699485 -8.92332e-08 0)
(0.699485 2.11412e-07 0)
(0.699483 8.86184e-08 0)
(0.736164 -2.51345e-07 0)
(0.736164 -7.64163e-08 0)
(0.736163 2.51973e-07 0)
(0.736161 7.58182e-08 0)
(0.772987 -2.95338e-07 0)
(0.772987 -6.28539e-08 0)
(0.772986 2.95949e-07 0)
(0.772984 6.22752e-08 0)
(0.809907 -3.42263e-07 0)
(0.809906 -4.89922e-08 0)
(0.809906 3.42859e-07 0)
(0.809904 4.8432e-08 0)
(0.846871 -3.91564e-07 0)
(0.846871 -3.52093e-08 0)
(0.84687 3.92141e-07 0)
(0.846868 3.46701e-08 0)
(0.883823 -4.42531e-07 0)
(0.883822 -2.18991e-08 0)
(0.883822 4.4309e-07 0)
(0.88382 2.1381e-08 0)
(0.9207 -4.94415e-07 0)
(0.9207 -9.3663e-09 0)
(0.920699 4.94953e-07 0)
(0.920697 8.87281e-09 0)
(0.957436 -5.46333e-07 0)
(0.957436 2.097e-09 0)
(0.957436 5.46854e-07 0)
(0.957434 -2.57207e-09 0)
(0.993958 -5.97434e-07 0)
(0.993958 1.22933e-08 0)
(0.993958 5.97936e-07 0)
(0.993956 -1.27469e-08 0)
(1.03019 -6.46762e-07 0)
(1.03019 2.10518e-08 0)
(1.03019 6.47247e-07 0)
(1.03019 -2.14872e-08 0)
(1.06604 -6.93424e-07 0)
(1.06604 2.82709e-08 0)
(1.06604 6.93887e-07 0)
(1.06604 -2.86836e-08 0)
(1.10142 -7.36442e-07 0)
(1.10142 3.38718e-08 0)
(1.10142 7.36894e-07 0)
(1.10142 -3.42704e-08 0)
(1.13623 -7.74936e-07 0)
(1.13623 3.7819e-08 0)
(1.13623 7.75371e-07 0)
(1.13623 -3.82005e-08 0)
(1.17037 -8.07954e-07 0)
(1.17037 4.0093e-08 0)
(1.17037 8.08378e-07 0)
(1.17036 -4.04608e-08 0)
(1.20371 -8.34616e-07 0)
(1.20371 4.06851e-08 0)
(1.20371 8.35021e-07 0)
(1.20371 -4.10347e-08 0)
(1.23613 -8.5398e-07 0)
(1.23613 3.95995e-08 0)
(1.23613 8.54375e-07 0)
(1.23613 -3.99362e-08 0)
(1.26751 -8.65126e-07 0)
(1.26751 3.68563e-08 0)
(1.26751 8.65505e-07 0)
(1.26751 -3.7178e-08 0)
(1.29769 -8.67076e-07 0)
(1.29769 3.25122e-08 0)
(1.29769 8.67454e-07 0)
(1.29769 -3.28308e-08 0)
(1.32652 -8.58833e-07 0)
(1.32652 2.66653e-08 0)
(1.32652 8.59209e-07 0)
(1.32652 -2.69863e-08 0)
(1.35384 -8.39373e-07 0)
(1.35384 1.94955e-08 0)
(1.35384 8.39744e-07 0)
(1.35384 -1.98075e-08 0)
(1.37946 -8.07608e-07 0)
(1.37946 1.12761e-08 0)
(1.37946 8.07982e-07 0)
(1.37946 -1.15933e-08 0)
(1.4032 -7.62491e-07 0)
(1.4032 2.38904e-09 0)
(1.4032 7.62854e-07 0)
(1.4032 -2.6868e-09 0)
(1.42485 -7.02942e-07 0)
(1.42485 -6.70708e-09 0)
(1.42485 7.03319e-07 0)
(1.42485 6.40147e-09 0)
(1.44419 -6.27973e-07 0)
(1.44419 -1.56231e-08 0)
(1.44419 6.28306e-07 0)
(1.44419 1.53761e-08 0)
(1.46098 -5.36437e-07 0)
(1.46098 -2.412e-08 0)
(1.46098 5.36742e-07 0)
(1.46098 2.39093e-08 0)
(1.47498 -4.27703e-07 0)
(1.47498 -3.17261e-08 0)
(1.47498 4.27911e-07 0)
(1.47498 3.15969e-08 0)
(1.48591 -3.04262e-07 0)
(1.48591 -3.49891e-08 0)
(1.48591 3.04376e-07 0)
(1.48591 3.49684e-08 0)
(1.49348 -1.77953e-07 0)
(1.49348 -2.50207e-08 0)
(1.49348 1.77585e-07 0)
(1.49348 2.47203e-08 0)
(1.49738 -6.0024e-08 0)
(1.49738 -4.77741e-09 0)
(1.49738 6.03311e-08 0)
(1.49739 5.09926e-09 0)
)
;

boundaryField
{
    inlet
    {
        type            cyclic;
    }
    outlet
    {
        type            cyclic;
    }
    fixedWalls-bottom
    {
        type            noSlip;
    }
    fixedWalls-top
    {
        type            symmetry;
    }
    frontAndBack
    {
        type            empty;
    }
}


// ************************************************************************* //
