/*--------------------------------*- C++ -*----------------------------------*\
  =========                 |
  \\      /  F ield         | OpenFOAM: The Open Source CFD Toolbox
   \\    /   O peration     | Website:  https://openfoam.org
    \\  /    A nd           | Version:  10
     \\/     M anipulation  |
\*---------------------------------------------------------------------------*/
FoamFile
{
    format      ascii;
    class       volScalarField;
    location    "2500";
    object      k;
}
// * * * * * * * * * * * * * * * * * * * * * * * * * * * * * * * * * * * * * //

dimensions      [0 2 -2 0 0 0 0];

internalField   nonuniform List<scalar> 
400
(
1.33655e-09
1.33642e-09
1.33643e-09
1.33655e-09
4.01001e-08
4.00963e-08
4.00965e-08
4.01003e-08
2.83971e-07
2.83944e-07
2.83945e-07
2.83973e-07
1.03243e-06
1.03233e-06
1.03234e-06
1.03244e-06
2.67146e-06
2.67121e-06
2.67122e-06
2.67148e-06
5.65744e-06
5.65691e-06
5.65693e-06
5.65748e-06
1.05126e-05
1.05116e-05
1.05117e-05
1.05127e-05
1.78235e-05
1.78218e-05
1.78219e-05
1.78237e-05
2.82396e-05
2.8237e-05
2.82371e-05
2.82399e-05
4.2471e-05
4.2467e-05
4.24672e-05
4.24715e-05
6.12835e-05
6.12778e-05
6.12781e-05
6.12844e-05
8.54909e-05
8.5483e-05
8.54835e-05
8.54924e-05
0.000115943
0.000115932
0.000115933
0.000115945
0.000153506
0.000153492
0.000153493
0.000153509
0.000199041
0.000199023
0.000199024
0.000199046
0.000253372
0.000253349
0.000253351
0.00025338
0.000317248
0.000317219
0.000317223
0.000317259
0.0003913
0.000391264
0.000391269
0.000391314
0.000475992
0.00047595
0.000475955
0.000476011
0.00057158
0.00057153
0.000571537
0.000571605
0.000678065
0.000678007
0.000678015
0.000678097
0.000795164
0.000795097
0.000795107
0.000795204
0.000922291
0.000922217
0.000922228
0.000922341
0.00105856
0.00105848
0.00105849
0.00105862
0.00120282
0.00120273
0.00120274
0.00120288
0.00135365
0.00135355
0.00135356
0.00135373
0.00150949
0.00150938
0.00150939
0.00150957
0.00166863
0.00166852
0.00166852
0.00166871
0.00182933
0.00182921
0.00182921
0.00182941
0.00198986
0.00198974
0.00198972
0.00198994
0.00214865
0.00214853
0.0021485
0.00214872
0.00230481
0.00230469
0.00230465
0.00230487
0.00245748
0.00245737
0.00245731
0.00245754
0.00260584
0.00260573
0.00260567
0.0026059
0.00274918
0.00274907
0.00274899
0.00274922
0.00288684
0.00288675
0.00288666
0.00288689
0.00301831
0.00301822
0.00301812
0.00301834
0.00314312
0.00314304
0.00314292
0.00314315
0.00326092
0.00326085
0.00326073
0.00326095
0.00337145
0.00337138
0.00337126
0.00337147
0.00347451
0.00347445
0.00347432
0.00347453
0.00356999
0.00356994
0.00356981
0.00357001
0.00365784
0.00365779
0.00365766
0.00365785
0.00373805
0.00373801
0.00373789
0.00373807
0.00381069
0.00381066
0.00381053
0.0038107
0.00387583
0.00387579
0.00387567
0.00387584
0.00393355
0.00393353
0.0039334
0.00393357
0.00398398
0.00398396
0.00398383
0.00398399
0.00402719
0.00402717
0.00402705
0.0040272
0.00406325
0.00406323
0.00406312
0.00406326
0.00409216
0.00409215
0.00409204
0.00409218
0.00411416
0.00411415
0.00411405
0.00411417
0.0041297
0.00412969
0.0041296
0.00412971
0.00413914
0.00413913
0.00413905
0.00413914
0.00414282
0.0041428
0.00414275
0.00414281
0.00414106
0.00414104
0.004141
0.00414103
0.00413415
0.00413412
0.00413411
0.00413408
0.00412235
0.00412232
0.00412231
0.00412225
0.00410588
0.00410586
0.00410585
0.00410577
0.00408496
0.00408495
0.00408493
0.00408484
0.00405975
0.00405976
0.00405973
0.00405963
0.00403041
0.00403043
0.0040304
0.00403029
0.00399706
0.00399707
0.00399705
0.00399693
0.0039598
0.0039598
0.00395979
0.00395965
0.0039187
0.0039187
0.00391869
0.00391854
0.00387382
0.00387383
0.0038738
0.00387367
0.00382522
0.00382525
0.00382521
0.00382508
0.00377298
0.00377302
0.00377296
0.00377284
0.00371714
0.00371718
0.00371712
0.00371701
0.00365777
0.0036578
0.00365774
0.00365764
0.00359492
0.00359495
0.00359489
0.00359479
0.00352866
0.00352869
0.00352863
0.00352854
0.00345906
0.00345908
0.00345904
0.00345895
0.00338621
0.00338624
0.00338617
0.0033861
0.00331016
0.0033102
0.00331012
0.00331006
0.003231
0.00323103
0.00323096
0.00323091
0.00314911
0.00314913
0.00314906
0.00314904
0.0030649
0.00306491
0.00306483
0.00306487
0.00297832
0.00297831
0.00297824
0.00297831
0.00288931
0.00288929
0.00288922
0.0028893
0.00279799
0.00279798
0.00279791
0.00279797
0.00270461
0.00270459
0.00270453
0.00270459
0.00260949
0.00260947
0.00260941
0.00260947
0.00251305
0.00251302
0.00251297
0.00251303
0.0024158
0.00241575
0.0024157
0.00241577
0.00231828
0.00231823
0.00231817
0.00231825
0.00222113
0.00222108
0.00222102
0.00222111
0.00212507
0.00212502
0.00212496
0.00212505
0.00203087
0.00203083
0.00203077
0.00203086
0.00193936
0.00193931
0.00193926
0.00193934
0.0018514
0.00185136
0.00185131
0.00185139
0.00176793
0.00176789
0.00176785
0.00176793
0.00168989
0.00168987
0.00168983
0.00168991
0.00161829
0.00161827
0.00161824
0.00161832
0.0015541
0.00155409
0.00155405
0.00155414
0.00149822
0.00149821
0.00149818
0.00149827
0.0014513
0.00145129
0.00145126
0.00145135
0.00141407
0.00141406
0.00141403
0.00141413
0.00138816
0.00138815
0.00138812
0.00138821
0.00137488
0.00137486
0.00137484
0.00137492
)
;

boundaryField
{
    inlet
    {
        type            cyclic;
    }
    outlet
    {
        type            cyclic;
    }
    fixedWalls-bottom
    {
        type            kqRWallFunction;
        value           nonuniform List<scalar> 4(1.33655e-09 1.33642e-09 1.33643e-09 1.33655e-09);
    }
    fixedWalls-top
    {
        type            symmetry;
    }
    frontAndBack
    {
        type            empty;
    }
}


// ************************************************************************* //
