/*--------------------------------*- C++ -*----------------------------------*\
  =========                 |
  \\      /  F ield         | OpenFOAM: The Open Source CFD Toolbox
   \\    /   O peration     | Website:  https://openfoam.org
    \\  /    A nd           | Version:  10
     \\/     M anipulation  |
\*---------------------------------------------------------------------------*/
FoamFile
{
    format      ascii;
    class       volScalarField;
    location    "2500";
    object      nut;
}
// * * * * * * * * * * * * * * * * * * * * * * * * * * * * * * * * * * * * * //

dimensions      [0 2 -1 0 0 0 0];

internalField   nonuniform List<scalar> 
400
(
4.78772e-14
4.78727e-14
4.78729e-14
4.78774e-14
8.39873e-12
8.39793e-12
8.39798e-12
8.39871e-12
1.76792e-10
1.76776e-10
1.76776e-10
1.76794e-10
1.36831e-09
1.36819e-09
1.36819e-09
1.36832e-09
6.25955e-09
6.25896e-09
6.25898e-09
6.25958e-09
2.08939e-08
2.08919e-08
2.0892e-08
2.0894e-08
5.66604e-08
5.6655e-08
5.66553e-08
5.66605e-08
1.32702e-07
1.32689e-07
1.3269e-07
1.32702e-07
2.78737e-07
2.7871e-07
2.78711e-07
2.78737e-07
5.3824e-07
5.38188e-07
5.38191e-07
5.38241e-07
9.71843e-07
9.71748e-07
9.71754e-07
9.71846e-07
1.66074e-06
1.66058e-06
1.66059e-06
1.66075e-06
2.70974e-06
2.70948e-06
2.7095e-06
2.70977e-06
4.24958e-06
4.24917e-06
4.24921e-06
4.24964e-06
6.4378e-06
6.43718e-06
6.43725e-06
6.43793e-06
9.4577e-06
9.45679e-06
9.45693e-06
9.45796e-06
1.35147e-05
1.35134e-05
1.35137e-05
1.35152e-05
1.88297e-05
1.8828e-05
1.88284e-05
1.88306e-05
2.56292e-05
2.56269e-05
2.56275e-05
2.56308e-05
3.41324e-05
3.41294e-05
3.41305e-05
3.41351e-05
4.45366e-05
4.4533e-05
4.45347e-05
4.4541e-05
5.70016e-05
5.69972e-05
5.69997e-05
5.70084e-05
7.16348e-05
7.16296e-05
7.16332e-05
7.16449e-05
8.84798e-05
8.84739e-05
8.84789e-05
8.84943e-05
0.000107509
0.000107503
0.000107509
0.000107529
0.000128624
0.000128617
0.000128625
0.00012865
0.000151654
0.000151647
0.000151656
0.000151689
0.000176373
0.000176366
0.000176377
0.000176417
0.000202509
0.000202501
0.000202513
0.000202562
0.000229758
0.00022975
0.000229763
0.000229821
0.000254004
0.000253989
0.000253985
0.000254012
0.00027794
0.000277925
0.00027792
0.000277946
0.000302366
0.000302352
0.000302344
0.000302371
0.000327217
0.000327203
0.000327194
0.000327222
0.0003524
0.000352387
0.000352376
0.000352405
0.000377823
0.00037781
0.000377798
0.000377827
0.000403396
0.000403385
0.000403371
0.000403401
0.000429035
0.000429025
0.000429009
0.000429039
0.000454659
0.00045465
0.000454633
0.000454663
0.000480198
0.00048019
0.000480172
0.000480201
0.000505591
0.000505584
0.000505565
0.000505594
0.000530796
0.000530789
0.00053077
0.000530798
0.000555793
0.000555788
0.000555768
0.000555795
0.000580601
0.000580596
0.000580577
0.000580602
0.000605281
0.000605277
0.000605257
0.00060528
0.000629952
0.000629949
0.000629928
0.000629949
0.000654793
0.00065479
0.000654768
0.000654786
0.000680045
0.000680042
0.000680018
0.000680033
0.000705976
0.000705972
0.000705947
0.000705957
0.000732542
0.000732537
0.000732512
0.000732525
0.00075538
0.000755382
0.000755377
0.000755482
0.000773035
0.000773037
0.000773032
0.000773127
0.000790126
0.000790128
0.000790123
0.000790207
0.000806742
0.000806744
0.00080674
0.00080681
0.000822977
0.000822976
0.000822974
0.00082303
0.000838925
0.000838921
0.00083892
0.000838958
0.000854672
0.000854666
0.000854668
0.000854686
0.000870304
0.000870295
0.000870298
0.000870299
0.00088589
0.000885878
0.000885881
0.000885865
0.000901479
0.000901467
0.000901469
0.000901437
0.000917108
0.0009171
0.000917096
0.000917052
0.000932794
0.000932787
0.000932781
0.000932725
0.000948534
0.000948533
0.000948523
0.000948457
0.000964327
0.000964329
0.000964307
0.000964237
0.000980145
0.000980147
0.000980125
0.000980043
0.000995965
0.000995966
0.000995948
0.000995852
0.00101177
0.00101178
0.00101174
0.00101165
0.00102754
0.00102755
0.00102751
0.00102741
0.00104328
0.00104326
0.00104324
0.00104315
0.00105899
0.00105897
0.00105895
0.00105885
0.00107471
0.00107469
0.00107467
0.00107457
0.00109049
0.00109049
0.00109046
0.00109036
0.00110644
0.00110645
0.00110639
0.00110632
0.00112269
0.00112271
0.00112258
0.0011226
0.00113941
0.00113944
0.00113924
0.00113933
0.00115684
0.00115685
0.00115659
0.00115677
0.00117535
0.00117531
0.00117504
0.00117532
0.00119489
0.00119498
0.00119472
0.00119505
0.00121382
0.00121396
0.00121369
0.00121404
0.00123151
0.00123159
0.00123138
0.0012317
0.00124775
0.00124779
0.00124765
0.00124792
0.00126253
0.00126255
0.00126249
0.00126273
0.00127594
0.00127594
0.00127597
0.00127622
0.00128811
0.00128801
0.00128821
0.0012885
0.00129918
0.00129904
0.00129926
0.00129971
0.00130924
0.0013091
0.00130929
0.00130997
0.00131841
0.00131835
0.00131845
0.0013194
0.00132672
0.00132704
0.00132703
0.00132806
0.00133489
0.00133464
0.00133533
0.00133603
0.00134229
0.00134214
0.00134289
0.00134357
0.00134923
0.0013496
0.00134975
0.00135076
0.00135577
0.00135632
0.00135633
0.00135766
0.00136203
0.00136269
0.00136268
0.00136423
0.00136797
0.00136871
0.00136871
0.00137044
0.00137347
0.00137427
0.00137429
0.00137619
0.0013783
0.00137916
0.0013792
0.00138124
0.00138189
0.00138283
0.00138288
0.00138506
0.00138377
0.00138481
0.00138488
0.00138717
0.00138439
0.00138565
0.00138577
0.00138813
0.00138537
0.0013871
0.00138738
0.00138976
)
;

boundaryField
{
    inlet
    {
        type            cyclic;
    }
    outlet
    {
        type            cyclic;
    }
    fixedWalls-bottom
    {
        type            nutkWallFunction;
        Cmu             0.09;
        kappa           0.41;
        E               9.8;
        value           uniform 0;
    }
    fixedWalls-top
    {
        type            symmetry;
    }
    frontAndBack
    {
        type            empty;
    }
}


// ************************************************************************* //
