/*--------------------------------*- C++ -*----------------------------------*\
  =========                 |
  \\      /  F ield         | OpenFOAM: The Open Source CFD Toolbox
   \\    /   O peration     | Website:  https://openfoam.org
    \\  /    A nd           | Version:  10
     \\/     M anipulation  |
\*---------------------------------------------------------------------------*/
FoamFile
{
    format      ascii;
    class       volScalarField;
    location    "2500";
    object      p;
}
// * * * * * * * * * * * * * * * * * * * * * * * * * * * * * * * * * * * * * //

dimensions      [0 2 -2 0 0 0 0];

internalField   nonuniform List<scalar> 
400
(
5.1593e-12
-3.42737e-08
-1.09958e-07
-7.54826e-08
-7.54401e-12
-3.42574e-08
-1.0992e-07
-7.54988e-08
-4.33517e-11
-3.42377e-08
-1.0988e-07
-7.55185e-08
-8.03907e-11
-3.42166e-08
-1.09848e-07
-7.55395e-08
-1.06102e-10
-3.41944e-08
-1.09823e-07
-7.55617e-08
-1.24147e-10
-3.41705e-08
-1.09806e-07
-7.55856e-08
-1.32763e-10
-3.41458e-08
-1.09797e-07
-7.56103e-08
-1.34292e-10
-3.412e-08
-1.09796e-07
-7.56361e-08
-1.25933e-10
-3.40943e-08
-1.09805e-07
-7.56617e-08
-1.09847e-10
-3.40687e-08
-1.09822e-07
-7.56873e-08
-8.39287e-11
-3.40447e-08
-1.09848e-07
-7.57113e-08
-5.09362e-11
-3.40225e-08
-1.09882e-07
-7.57334e-08
-9.89306e-12
-3.40044e-08
-1.09923e-07
-7.57515e-08
3.51747e-11
-3.39907e-08
-1.09969e-07
-7.57652e-08
8.32548e-11
-3.39843e-08
-1.10018e-07
-7.57716e-08
1.27818e-10
-3.39857e-08
-1.10064e-07
-7.57702e-08
1.64232e-10
-3.39977e-08
-1.101e-07
-7.57582e-08
1.81279e-10
-3.40199e-08
-1.10119e-07
-7.57359e-08
1.67999e-10
-3.40538e-08
-1.10106e-07
-7.57021e-08
1.0527e-10
-3.40958e-08
-1.10044e-07
-7.56602e-08
-2.74979e-11
-3.4143e-08
-1.09912e-07
-7.5613e-08
-2.60203e-10
-3.41864e-08
-1.09681e-07
-7.55696e-08
-6.24957e-10
-3.42173e-08
-1.09316e-07
-7.55388e-08
-1.16244e-09
-3.42211e-08
-1.0878e-07
-7.55351e-08
-1.91245e-09
-3.41862e-08
-1.0803e-07
-7.55701e-08
-2.91751e-09
-3.40997e-08
-1.07026e-07
-7.56567e-08
-4.21853e-09
-3.39556e-08
-1.05726e-07
-7.58009e-08
-5.88194e-09
-3.37377e-08
-1.04063e-07
-7.60189e-08
-7.98856e-09
-3.34296e-08
-1.01957e-07
-7.63272e-08
-1.03988e-08
-3.31042e-08
-9.95478e-08
-7.66527e-08
-1.2107e-08
-3.31912e-08
-9.784e-08
-7.65659e-08
-1.28863e-08
-3.37501e-08
-9.70615e-08
-7.60071e-08
-1.35266e-08
-3.44081e-08
-9.64215e-08
-7.53493e-08
-1.42029e-08
-3.5075e-08
-9.5746e-08
-7.46827e-08
-1.48744e-08
-3.57619e-08
-9.50748e-08
-7.3996e-08
-1.55116e-08
-3.64724e-08
-9.44382e-08
-7.32857e-08
-1.61052e-08
-3.72046e-08
-9.38448e-08
-7.25538e-08
-1.66556e-08
-3.79491e-08
-9.3295e-08
-7.18096e-08
-1.71596e-08
-3.87014e-08
-9.27912e-08
-7.10576e-08
-1.76194e-08
-3.9452e-08
-9.23319e-08
-7.03072e-08
-1.80349e-08
-4.0196e-08
-9.19165e-08
-6.95636e-08
-1.84099e-08
-4.09242e-08
-9.1542e-08
-6.88357e-08
-1.87387e-08
-4.1635e-08
-9.12132e-08
-6.81253e-08
-1.90135e-08
-4.23265e-08
-9.09389e-08
-6.74341e-08
-1.92173e-08
-4.30064e-08
-9.0735e-08
-6.67546e-08
-1.93351e-08
-4.36846e-08
-9.06176e-08
-6.60768e-08
-1.9332e-08
-4.43824e-08
-9.06207e-08
-6.53795e-08
-1.91175e-08
-4.51333e-08
-9.08355e-08
-6.46291e-08
-1.85923e-08
-4.59818e-08
-9.13606e-08
-6.3781e-08
-1.81766e-08
-4.68434e-08
-9.17766e-08
-6.29199e-08
-1.96338e-08
-4.7298e-08
-9.03193e-08
-6.24658e-08
-2.2775e-08
-4.73162e-08
-8.71784e-08
-6.24482e-08
-2.57066e-08
-4.72751e-08
-8.42466e-08
-6.24897e-08
-2.81024e-08
-4.72445e-08
-8.18508e-08
-6.25209e-08
-3.00284e-08
-4.72064e-08
-7.99246e-08
-6.25596e-08
-3.14853e-08
-4.71544e-08
-7.84676e-08
-6.26121e-08
-3.24195e-08
-4.70915e-08
-7.7533e-08
-6.26757e-08
-3.28259e-08
-4.70576e-08
-7.71264e-08
-6.27101e-08
-3.27307e-08
-4.71034e-08
-7.72211e-08
-6.2665e-08
-3.21455e-08
-4.72017e-08
-7.78061e-08
-6.25672e-08
-3.10893e-08
-4.73344e-08
-7.88618e-08
-6.24353e-08
-2.95919e-08
-4.74934e-08
-8.0359e-08
-6.22769e-08
-2.76551e-08
-4.7666e-08
-8.22954e-08
-6.21051e-08
-2.52604e-08
-4.79322e-08
-8.46899e-08
-6.18396e-08
-2.24641e-08
-4.82879e-08
-8.74859e-08
-6.14847e-08
-1.93695e-08
-4.86008e-08
-9.05805e-08
-6.11726e-08
-1.59516e-08
-4.89703e-08
-9.39984e-08
-6.08042e-08
-1.23337e-08
-4.95049e-08
-9.76164e-08
-6.02705e-08
-8.91617e-09
-5.02089e-08
-1.01034e-07
-5.95677e-08
-5.73493e-09
-5.10278e-08
-1.04216e-07
-5.87498e-08
-2.48049e-09
-5.17995e-08
-1.0747e-07
-5.79793e-08
1.01067e-09
-5.24015e-08
-1.10962e-07
-5.73784e-08
4.60821e-09
-5.31286e-08
-1.1456e-07
-5.66524e-08
8.01796e-09
-5.47462e-08
-1.1797e-07
-5.5036e-08
1.12534e-08
-5.78757e-08
-1.21205e-07
-5.19076e-08
1.41564e-08
-6.28665e-08
-1.24108e-07
-4.69179e-08
1.57964e-08
-6.93184e-08
-1.25748e-07
-4.04671e-08
1.585e-08
-7.4771e-08
-1.25801e-07
-3.50154e-08
1.51958e-08
-7.8116e-08
-1.25146e-07
-3.16712e-08
1.4367e-08
-8.07741e-08
-1.24316e-07
-2.90138e-08
1.33336e-08
-8.31888e-08
-1.23282e-07
-2.65998e-08
1.18461e-08
-8.47664e-08
-1.21793e-07
-2.50228e-08
9.07803e-09
-8.50322e-08
-1.19024e-07
-2.47576e-08
3.61941e-09
-8.40774e-08
-1.13564e-07
-2.57132e-08
-4.97274e-09
-8.27208e-08
-1.04971e-07
-2.70706e-08
-1.61868e-08
-8.1945e-08
-9.37557e-08
-2.78466e-08
-2.93866e-08
-8.16068e-08
-8.05547e-08
-2.81846e-08
-4.31758e-08
-7.93937e-08
-6.67645e-08
-3.03972e-08
-5.85525e-08
-7.44617e-08
-5.13865e-08
-3.53291e-08
-7.53139e-08
-6.80329e-08
-3.46235e-08
-4.1758e-08
-8.95963e-08
-6.15729e-08
-2.03397e-08
-4.82183e-08
-1.01807e-07
-5.59222e-08
-8.12772e-09
-5.3869e-08
-1.14481e-07
-5.05168e-08
4.54683e-09
-5.92743e-08
-1.27661e-07
-4.50642e-08
1.77279e-08
-6.47268e-08
-1.40642e-07
-3.96511e-08
3.07095e-08
-7.01395e-08
-1.52754e-07
-3.45255e-08
4.2823e-08
-7.52648e-08
-1.63418e-07
-2.99337e-08
5.34879e-08
-7.98561e-08
-1.72064e-07
-2.60262e-08
6.21352e-08
-8.37631e-08
-1.78247e-07
-2.28104e-08
6.83191e-08
-8.69788e-08
-1.82033e-07
-2.03702e-08
7.21064e-08
-8.9419e-08
)
;

boundaryField
{
    inlet
    {
        type            cyclic;
    }
    outlet
    {
        type            cyclic;
    }
    fixedWalls-bottom
    {
        type            zeroGradient;
    }
    fixedWalls-top
    {
        type            symmetry;
    }
    frontAndBack
    {
        type            empty;
    }
}


// ************************************************************************* //
