/*--------------------------------*- C++ -*----------------------------------*\
  =========                 |
  \\      /  F ield         | OpenFOAM: The Open Source CFD Toolbox
   \\    /   O peration     | Website:  https://openfoam.org
    \\  /    A nd           | Version:  10
     \\/     M anipulation  |
\*---------------------------------------------------------------------------*/
FoamFile
{
    format      ascii;
    class       volScalarField;
    location    "7500";
    object      p;
}
// * * * * * * * * * * * * * * * * * * * * * * * * * * * * * * * * * * * * * //

dimensions      [0 2 -2 0 0 0 0];

internalField   nonuniform List<scalar> 
400
(
-1.55459e-18
-2.95061e-17
3.63248e-17
3.51162e-17
-7.60882e-19
-2.94136e-17
3.62244e-17
3.50093e-17
-1.24862e-18
-2.92819e-17
3.6094e-17
3.487e-17
-2.388e-18
-2.91715e-17
3.60117e-17
3.4704e-17
-3.50116e-18
-2.90372e-17
3.5918e-17
3.45676e-17
-4.47665e-18
-2.88846e-17
3.5894e-17
3.43615e-17
-5.28098e-18
-2.88823e-17
3.58566e-17
3.4292e-17
-6.0921e-18
-2.89216e-17
3.58519e-17
3.42779e-17
-6.76437e-18
-2.87983e-17
3.5762e-17
3.41064e-17
-7.33281e-18
-2.87468e-17
3.56436e-17
3.39075e-17
-7.95277e-18
-2.87031e-17
3.56703e-17
3.36922e-17
-8.7876e-18
-2.88334e-17
3.56691e-17
3.3872e-17
-9.53424e-18
-2.92478e-17
3.56777e-17
3.42642e-17
-1.01014e-17
-2.93075e-17
3.5583e-17
3.41332e-17
-1.07584e-17
-2.91593e-17
3.55347e-17
3.38064e-17
-1.15424e-17
-2.90105e-17
3.55845e-17
3.35789e-17
-1.22585e-17
-2.89894e-17
3.5527e-17
3.36534e-17
-1.30977e-17
-2.89835e-17
3.56765e-17
3.36241e-17
-1.42496e-17
-2.90388e-17
3.6058e-17
3.35491e-17
-1.54232e-17
-2.89178e-17
3.65501e-17
3.33287e-17
-1.65676e-17
-2.9014e-17
3.68948e-17
3.34846e-17
-1.78273e-17
-2.84228e-17
3.72875e-17
3.29897e-17
-1.91456e-17
-2.81535e-17
3.80709e-17
3.24998e-17
-2.06219e-17
-2.81722e-17
3.88675e-17
3.23711e-17
-2.21509e-17
-2.78852e-17
3.96103e-17
3.21522e-17
-2.37465e-17
-2.80443e-17
4.0606e-17
3.22822e-17
-2.53059e-17
-2.81044e-17
4.16061e-17
3.21476e-17
-2.71875e-17
-2.85884e-17
4.29792e-17
3.25244e-17
-2.91985e-17
-2.89215e-17
4.44267e-17
3.28061e-17
-3.14376e-17
-2.97558e-17
4.62085e-17
3.35014e-17
-3.34742e-17
-3.05494e-17
4.79207e-17
3.4017e-17
-3.49334e-17
-3.08094e-17
4.89176e-17
3.41335e-17
-3.62864e-17
-3.10581e-17
4.95879e-17
3.4241e-17
-3.76362e-17
-3.1417e-17
5.0022e-17
3.48303e-17
-3.90399e-17
-3.13004e-17
5.05275e-17
3.48666e-17
-4.02919e-17
-3.17214e-17
5.11682e-17
3.52248e-17
-4.13738e-17
-3.18842e-17
5.12118e-17
3.54268e-17
-4.24651e-17
-3.18528e-17
5.15278e-17
3.53518e-17
-4.3248e-17
-3.17144e-17
5.1792e-17
3.49902e-17
-4.46259e-17
-3.17333e-17
5.25572e-17
3.46567e-17
-4.57014e-17
-3.15473e-17
5.30157e-17
3.44814e-17
-4.72186e-17
-3.24758e-17
5.39064e-17
3.51776e-17
-4.88592e-17
-3.28677e-17
5.51764e-17
3.53284e-17
-5.05159e-17
-3.29625e-17
5.62088e-17
3.52289e-17
-5.27029e-17
-3.39265e-17
5.77503e-17
3.60996e-17
-5.50376e-17
-3.45404e-17
5.92132e-17
3.65859e-17
-5.72319e-17
-3.59224e-17
6.04791e-17
3.78843e-17
-5.98324e-17
-3.72393e-17
6.26961e-17
3.9321e-17
-6.25598e-17
-3.81461e-17
6.46356e-17
4.03905e-17
-6.46656e-17
-3.83438e-17
6.60218e-17
4.07112e-17
-6.64115e-17
-3.84204e-17
6.71558e-17
4.09467e-17
-6.85523e-17
-3.79988e-17
6.87497e-17
4.05826e-17
-7.04724e-17
-3.72687e-17
6.98042e-17
3.97847e-17
-7.16915e-17
-3.51069e-17
7.03248e-17
3.75665e-17
-7.17624e-17
-3.30388e-17
7.06883e-17
3.47128e-17
-7.25824e-17
-3.09836e-17
7.17276e-17
3.19006e-17
-7.36775e-17
-2.89156e-17
7.28705e-17
2.96313e-17
-7.50327e-17
-2.59938e-17
7.36705e-17
2.66987e-17
-7.73237e-17
-2.30986e-17
7.53498e-17
2.38359e-17
-7.89695e-17
-1.97593e-17
7.72006e-17
1.98821e-17
-7.95367e-17
-1.55039e-17
7.84805e-17
1.44503e-17
-8.0154e-17
-1.22448e-17
7.97436e-17
1.05886e-17
-8.03717e-17
-9.99679e-18
8.10313e-17
6.7711e-18
-8.0229e-17
-8.02045e-18
8.10215e-17
4.67557e-18
-7.97014e-17
-4.5081e-18
7.94886e-17
1.32584e-18
-7.71806e-17
-3.72786e-19
7.63734e-17
-2.42701e-18
-7.34872e-17
2.11961e-18
7.21376e-17
-4.73417e-18
-6.99226e-17
3.75537e-18
6.71593e-17
-5.41796e-18
-6.66213e-17
4.78416e-18
6.3069e-17
-6.5401e-18
-6.44416e-17
5.1354e-18
6.07716e-17
-7.07603e-18
-6.19132e-17
6.79448e-18
5.72344e-17
-8.24664e-18
-5.95153e-17
9.14907e-18
5.32045e-17
-9.61148e-18
-5.63994e-17
1.31216e-17
4.83135e-17
-1.23569e-17
-5.2674e-17
1.48194e-17
4.37969e-17
-1.39468e-17
-4.97626e-17
1.60993e-17
3.96833e-17
-1.52045e-17
-4.62568e-17
1.76645e-17
3.50116e-17
-1.68227e-17
-4.24541e-17
1.77536e-17
3.08137e-17
-1.81172e-17
-3.88073e-17
1.78375e-17
2.67156e-17
-1.93967e-17
-3.41625e-17
1.87804e-17
2.15898e-17
-2.10813e-17
-2.89635e-17
1.98482e-17
1.60088e-17
-2.30981e-17
-2.31582e-17
1.9494e-17
9.62604e-18
-2.34066e-17
-1.78506e-17
2.0648e-17
3.78141e-18
-2.54349e-17
-1.22952e-17
2.16291e-17
-1.70666e-18
-2.71587e-17
-7.5413e-18
2.14046e-17
-6.72429e-18
-2.8182e-17
-3.54389e-18
2.20093e-17
-1.16561e-17
-2.85783e-17
3.69598e-19
2.29214e-17
-1.60502e-17
-2.96291e-17
5.85347e-18
2.26957e-17
-2.03589e-17
-3.10435e-17
9.96784e-18
2.32118e-17
-2.6567e-17
-3.01714e-17
1.37032e-17
2.45356e-17
-3.26012e-17
-2.96681e-17
1.80519e-17
2.52449e-17
-3.8024e-17
-2.9172e-17
2.20425e-17
2.47804e-17
-4.2281e-17
-2.87079e-17
2.5411e-17
2.41576e-17
-4.60784e-17
-2.79441e-17
2.78419e-17
2.40287e-17
-4.99137e-17
-2.68988e-17
3.03142e-17
2.43914e-17
-5.39964e-17
-2.61798e-17
3.37181e-17
2.44198e-17
-5.84188e-17
-2.54797e-17
3.59717e-17
2.40111e-17
-6.139e-17
-2.44967e-17
3.91763e-17
2.41356e-17
-6.42145e-17
-2.50208e-17
4.18652e-17
2.47222e-17
-6.687e-17
-2.55567e-17
4.43526e-17
2.48375e-17
-6.94898e-17
-2.55258e-17
4.69993e-17
2.53544e-17
-7.26593e-17
-2.65868e-17
)
;

boundaryField
{
    inlet
    {
        type            cyclic;
    }
    outlet
    {
        type            cyclic;
    }
    fixedWalls-bottom
    {
        type            zeroGradient;
    }
    fixedWalls-top
    {
        type            symmetry;
    }
    frontAndBack
    {
        type            empty;
    }
}


// ************************************************************************* //
