/*--------------------------------*- C++ -*----------------------------------*\
  =========                 |
  \\      /  F ield         | OpenFOAM: The Open Source CFD Toolbox
   \\    /   O peration     | Website:  https://openfoam.org
    \\  /    A nd           | Version:  10
     \\/     M anipulation  |
\*---------------------------------------------------------------------------*/
FoamFile
{
    format      ascii;
    class       volSymmTensorField;
    location    "7500";
    object      R;
}
// * * * * * * * * * * * * * * * * * * * * * * * * * * * * * * * * * * * * * //

dimensions      [0 2 -2 0 0 0 0];

internalField   nonuniform List<symmTensor> 
400
(
(1.4803e-16 -1.51341e-20 -0 1.4803e-16 -0 1.4803e-16)
(1.4803e-16 -1.51341e-20 -0 1.4803e-16 -0 1.4803e-16)
(1.4803e-16 -1.51341e-20 -0 1.4803e-16 -0 1.4803e-16)
(1.4803e-16 -1.51341e-20 -0 1.4803e-16 -0 1.4803e-16)
(1.4803e-16 -9.18579e-20 -0 1.4803e-16 -0 1.4803e-16)
(1.4803e-16 -9.18579e-20 -0 1.4803e-16 -0 1.4803e-16)
(1.4803e-16 -9.18579e-20 -0 1.4803e-16 -0 1.4803e-16)
(1.4803e-16 -9.18579e-20 -0 1.4803e-16 -0 1.4803e-16)
(1.4803e-16 -2.77235e-19 -0 1.4803e-16 -0 1.4803e-16)
(1.4803e-16 -2.77235e-19 -0 1.4803e-16 -0 1.4803e-16)
(1.4803e-16 -2.77235e-19 -0 1.4803e-16 -0 1.4803e-16)
(1.4803e-16 -2.77235e-19 -0 1.4803e-16 -0 1.4803e-16)
(1.4803e-16 -5.93286e-19 -0 1.4803e-16 -0 1.4803e-16)
(1.4803e-16 -5.93287e-19 -0 1.4803e-16 -0 1.4803e-16)
(1.4803e-16 -5.93287e-19 -0 1.4803e-16 -0 1.4803e-16)
(1.4803e-16 -5.93287e-19 -0 1.4803e-16 -0 1.4803e-16)
(1.4803e-16 -1.048e-18 -0 1.4803e-16 -0 1.4803e-16)
(1.4803e-16 -1.04801e-18 -0 1.4803e-16 -0 1.4803e-16)
(1.4803e-16 -1.04801e-18 -0 1.4803e-16 -0 1.4803e-16)
(1.4803e-16 -1.04801e-18 -0 1.4803e-16 -0 1.4803e-16)
(1.4803e-16 -1.64084e-18 -0 1.4803e-16 -0 1.4803e-16)
(1.4803e-16 -1.64088e-18 -0 1.4803e-16 -0 1.4803e-16)
(1.4803e-16 -1.64089e-18 -0 1.4803e-16 -0 1.4803e-16)
(1.4803e-16 -1.64089e-18 -0 1.4803e-16 -0 1.4803e-16)
(1.4803e-16 -2.36665e-18 -0 1.4803e-16 -0 1.4803e-16)
(1.4803e-16 -2.36674e-18 -0 1.4803e-16 -0 1.4803e-16)
(1.4803e-16 -2.36678e-18 -0 1.4803e-16 -0 1.4803e-16)
(1.4803e-16 -2.36676e-18 -0 1.4803e-16 -0 1.4803e-16)
(1.4803e-16 -3.222e-18 -0 1.4803e-16 -0 1.4803e-16)
(1.4803e-16 -3.22221e-18 -0 1.4803e-16 -0 1.4803e-16)
(1.4803e-16 -3.22225e-18 -0 1.4803e-16 -0 1.4803e-16)
(1.4803e-16 -3.22223e-18 -0 1.4803e-16 -0 1.4803e-16)
(1.4803e-16 -4.20721e-18 -0 1.4803e-16 -0 1.4803e-16)
(1.4803e-16 -4.20756e-18 -0 1.4803e-16 -0 1.4803e-16)
(1.4803e-16 -4.20761e-18 -0 1.4803e-16 -0 1.4803e-16)
(1.4803e-16 -4.20758e-18 -0 1.4803e-16 -0 1.4803e-16)
(1.4803e-16 -5.32416e-18 -0 1.4803e-16 -0 1.4803e-16)
(1.4803e-16 -5.32467e-18 -0 1.4803e-16 -0 1.4803e-16)
(1.4803e-16 -5.32472e-18 -0 1.4803e-16 -0 1.4803e-16)
(1.4803e-16 -5.32468e-18 -0 1.4803e-16 -0 1.4803e-16)
(1.4803e-16 -6.57463e-18 -0 1.4803e-16 -0 1.4803e-16)
(1.4803e-16 -6.57529e-18 -0 1.4803e-16 -0 1.4803e-16)
(1.4803e-16 -6.57536e-18 -0 1.4803e-16 -0 1.4803e-16)
(1.4803e-16 -6.57531e-18 -0 1.4803e-16 -0 1.4803e-16)
(1.4803e-16 -7.95947e-18 -0 1.4803e-16 -0 1.4803e-16)
(1.4803e-16 -7.96031e-18 -0 1.4803e-16 -0 1.4803e-16)
(1.4803e-16 -7.96041e-18 -0 1.4803e-16 -0 1.4803e-16)
(1.4803e-16 -7.96035e-18 -0 1.4803e-16 -0 1.4803e-16)
(1.4803e-16 -9.47825e-18 -0 1.4803e-16 -0 1.4803e-16)
(1.4803e-16 -9.4793e-18 -0 1.4803e-16 -0 1.4803e-16)
(1.4803e-16 -9.47946e-18 -0 1.4803e-16 -0 1.4803e-16)
(1.4803e-16 -9.47938e-18 -0 1.4803e-16 -0 1.4803e-16)
(1.4803e-16 -1.11284e-17 -0 1.4803e-16 -0 1.4803e-16)
(1.4803e-16 -1.11297e-17 -0 1.4803e-16 -0 1.4803e-16)
(1.4803e-16 -1.113e-17 -0 1.4803e-16 -0 1.4803e-16)
(1.4803e-16 -1.11299e-17 -0 1.4803e-16 -0 1.4803e-16)
(1.4803e-16 -1.29038e-17 -0 1.4803e-16 -0 1.4803e-16)
(1.4803e-16 -1.29056e-17 -0 1.4803e-16 -0 1.4803e-16)
(1.4803e-16 -1.29061e-17 -0 1.4803e-16 -0 1.4803e-16)
(1.4803e-16 -1.29059e-17 -0 1.4803e-16 -0 1.4803e-16)
(1.4803e-16 -1.47941e-17 -0 1.4803e-16 -0 1.4803e-16)
(1.4803e-16 -1.47966e-17 -0 1.4803e-16 -0 1.4803e-16)
(1.4803e-16 -1.47973e-17 -0 1.4803e-16 -0 1.4803e-16)
(1.4803e-16 -1.47971e-17 -0 1.4803e-16 -0 1.4803e-16)
(1.4803e-16 -1.67849e-17 -0 1.4803e-16 -0 1.4803e-16)
(1.4803e-16 -1.67883e-17 -0 1.4803e-16 -0 1.4803e-16)
(1.4803e-16 -1.67895e-17 -0 1.4803e-16 -0 1.4803e-16)
(1.4803e-16 -1.67892e-17 -0 1.4803e-16 -0 1.4803e-16)
(1.4803e-16 -1.88588e-17 -0 1.4803e-16 -0 1.4803e-16)
(1.4803e-16 -1.88634e-17 -0 1.4803e-16 -0 1.4803e-16)
(1.4803e-16 -1.88654e-17 -0 1.4803e-16 -0 1.4803e-16)
(1.4803e-16 -1.88649e-17 -0 1.4803e-16 -0 1.4803e-16)
(1.4803e-16 -2.09964e-17 -0 1.4803e-16 -0 1.4803e-16)
(1.4803e-16 -2.10027e-17 -0 1.4803e-16 -0 1.4803e-16)
(1.4803e-16 -2.10057e-17 -0 1.4803e-16 -0 1.4803e-16)
(1.4803e-16 -2.10051e-17 -0 1.4803e-16 -0 1.4803e-16)
(1.4803e-16 -2.3177e-17 -0 1.4803e-16 -0 1.4803e-16)
(1.4803e-16 -2.31856e-17 -0 1.4803e-16 -0 1.4803e-16)
(1.4803e-16 -2.31899e-17 -0 1.4803e-16 -0 1.4803e-16)
(1.4803e-16 -2.31891e-17 -0 1.4803e-16 -0 1.4803e-16)
(1.4803e-16 -2.53794e-17 -0 1.4803e-16 -0 1.4803e-16)
(1.4803e-16 -2.53906e-17 -0 1.4803e-16 -0 1.4803e-16)
(1.4803e-16 -2.53967e-17 -0 1.4803e-16 -0 1.4803e-16)
(1.4803e-16 -2.53958e-17 -0 1.4803e-16 -0 1.4803e-16)
(1.4803e-16 -2.75826e-17 -0 1.4803e-16 -0 1.4803e-16)
(1.4803e-16 -2.75969e-17 -0 1.4803e-16 -0 1.4803e-16)
(1.4803e-16 -2.76052e-17 -0 1.4803e-16 -0 1.4803e-16)
(1.4803e-16 -2.76043e-17 -0 1.4803e-16 -0 1.4803e-16)
(1.4803e-16 -2.97665e-17 -0 1.4803e-16 -0 1.4803e-16)
(1.4803e-16 -2.97842e-17 -0 1.4803e-16 -0 1.4803e-16)
(1.4803e-16 -2.97954e-17 -0 1.4803e-16 -0 1.4803e-16)
(1.4803e-16 -2.97947e-17 -0 1.4803e-16 -0 1.4803e-16)
(1.4803e-16 -3.19127e-17 -0 1.4803e-16 -0 1.4803e-16)
(1.4803e-16 -3.1934e-17 -0 1.4803e-16 -0 1.4803e-16)
(1.4803e-16 -3.19488e-17 -0 1.4803e-16 -0 1.4803e-16)
(1.4803e-16 -3.19486e-17 -0 1.4803e-16 -0 1.4803e-16)
(1.4803e-16 -3.40049e-17 -0 1.4803e-16 -0 1.4803e-16)
(1.4803e-16 -3.403e-17 -0 1.4803e-16 -0 1.4803e-16)
(1.4803e-16 -3.40491e-17 -0 1.4803e-16 -0 1.4803e-16)
(1.4803e-16 -3.405e-17 -0 1.4803e-16 -0 1.4803e-16)
(1.4803e-16 -3.60296e-17 -0 1.4803e-16 -0 1.4803e-16)
(1.4803e-16 -3.60581e-17 -0 1.4803e-16 -0 1.4803e-16)
(1.4803e-16 -3.60822e-17 -0 1.4803e-16 -0 1.4803e-16)
(1.4803e-16 -3.60845e-17 -0 1.4803e-16 -0 1.4803e-16)
(1.4803e-16 -3.79755e-17 -0 1.4803e-16 -0 1.4803e-16)
(1.4803e-16 -3.80071e-17 -0 1.4803e-16 -0 1.4803e-16)
(1.4803e-16 -3.80366e-17 -0 1.4803e-16 -0 1.4803e-16)
(1.4803e-16 -3.80413e-17 -0 1.4803e-16 -0 1.4803e-16)
(1.4803e-16 -3.98343e-17 -0 1.4803e-16 -0 1.4803e-16)
(1.4803e-16 -3.98683e-17 -0 1.4803e-16 -0 1.4803e-16)
(1.4803e-16 -3.99035e-17 -0 1.4803e-16 -0 1.4803e-16)
(1.4803e-16 -3.99118e-17 -0 1.4803e-16 -0 1.4803e-16)
(1.4803e-16 -4.16001e-17 -0 1.4803e-16 -0 1.4803e-16)
(1.4803e-16 -4.16356e-17 -0 1.4803e-16 -0 1.4803e-16)
(1.4803e-16 -4.16764e-17 -0 1.4803e-16 -0 1.4803e-16)
(1.4803e-16 -4.16898e-17 -0 1.4803e-16 -0 1.4803e-16)
(1.4803e-16 -4.32694e-17 -0 1.4803e-16 -0 1.4803e-16)
(1.4803e-16 -4.3305e-17 -0 1.4803e-16 -0 1.4803e-16)
(1.4803e-16 -4.33512e-17 -0 1.4803e-16 -0 1.4803e-16)
(1.4803e-16 -4.33717e-17 -0 1.4803e-16 -0 1.4803e-16)
(1.4803e-16 -4.48405e-17 -0 1.4803e-16 -0 1.4803e-16)
(1.4803e-16 -4.48752e-17 -0 1.4803e-16 -0 1.4803e-16)
(1.4803e-16 -4.49262e-17 -0 1.4803e-16 -0 1.4803e-16)
(1.4803e-16 -4.49556e-17 -0 1.4803e-16 -0 1.4803e-16)
(1.4803e-16 -4.63135e-17 -0 1.4803e-16 -0 1.4803e-16)
(1.4803e-16 -4.63465e-17 -0 1.4803e-16 -0 1.4803e-16)
(1.4803e-16 -4.64013e-17 -0 1.4803e-16 -0 1.4803e-16)
(1.4803e-16 -4.64415e-17 -0 1.4803e-16 -0 1.4803e-16)
(1.4803e-16 -4.76898e-17 -0 1.4803e-16 -0 1.4803e-16)
(1.4803e-16 -4.77205e-17 -0 1.4803e-16 -0 1.4803e-16)
(1.4803e-16 -4.77781e-17 -0 1.4803e-16 -0 1.4803e-16)
(1.4803e-16 -4.78308e-17 -0 1.4803e-16 -0 1.4803e-16)
(1.4803e-16 -4.89721e-17 -0 1.4803e-16 -0 1.4803e-16)
(1.4803e-16 -4.90005e-17 -0 1.4803e-16 -0 1.4803e-16)
(1.4803e-16 -4.90593e-17 -0 1.4803e-16 -0 1.4803e-16)
(1.4803e-16 -4.91259e-17 -0 1.4803e-16 -0 1.4803e-16)
(1.4803e-16 -5.01638e-17 -0 1.4803e-16 -0 1.4803e-16)
(1.4803e-16 -5.01901e-17 -0 1.4803e-16 -0 1.4803e-16)
(1.4803e-16 -5.02485e-17 -0 1.4803e-16 -0 1.4803e-16)
(1.4803e-16 -5.03301e-17 -0 1.4803e-16 -0 1.4803e-16)
(1.4803e-16 -5.1269e-17 -0 1.4803e-16 -0 1.4803e-16)
(1.4803e-16 -5.12934e-17 -0 1.4803e-16 -0 1.4803e-16)
(1.4803e-16 -5.13506e-17 -0 1.4803e-16 -0 1.4803e-16)
(1.4803e-16 -5.14475e-17 -0 1.4803e-16 -0 1.4803e-16)
(1.4803e-16 -5.22925e-17 -0 1.4803e-16 -0 1.4803e-16)
(1.4803e-16 -5.23151e-17 -0 1.4803e-16 -0 1.4803e-16)
(1.4803e-16 -5.23711e-17 -0 1.4803e-16 -0 1.4803e-16)
(1.4803e-16 -5.24826e-17 -0 1.4803e-16 -0 1.4803e-16)
(1.4803e-16 -5.32392e-17 -0 1.4803e-16 -0 1.4803e-16)
(1.4803e-16 -5.32604e-17 -0 1.4803e-16 -0 1.4803e-16)
(1.4803e-16 -5.33158e-17 -0 1.4803e-16 -0 1.4803e-16)
(1.4803e-16 -5.34402e-17 -0 1.4803e-16 -0 1.4803e-16)
(1.4803e-16 -5.41147e-17 -0 1.4803e-16 -0 1.4803e-16)
(1.4803e-16 -5.41348e-17 -0 1.4803e-16 -0 1.4803e-16)
(1.4803e-16 -5.41901e-17 -0 1.4803e-16 -0 1.4803e-16)
(1.4803e-16 -5.43262e-17 -0 1.4803e-16 -0 1.4803e-16)
(1.4803e-16 -5.49248e-17 -0 1.4803e-16 -0 1.4803e-16)
(1.4803e-16 -5.49441e-17 -0 1.4803e-16 -0 1.4803e-16)
(1.4803e-16 -5.49996e-17 -0 1.4803e-16 -0 1.4803e-16)
(1.4803e-16 -5.51465e-17 -0 1.4803e-16 -0 1.4803e-16)
(1.4803e-16 -5.5676e-17 -0 1.4803e-16 -0 1.4803e-16)
(1.4803e-16 -5.56946e-17 -0 1.4803e-16 -0 1.4803e-16)
(1.4803e-16 -5.57506e-17 -0 1.4803e-16 -0 1.4803e-16)
(1.4803e-16 -5.59078e-17 -0 1.4803e-16 -0 1.4803e-16)
(1.4803e-16 -5.63752e-17 -0 1.4803e-16 -0 1.4803e-16)
(1.4803e-16 -5.63935e-17 -0 1.4803e-16 -0 1.4803e-16)
(1.4803e-16 -5.64502e-17 -0 1.4803e-16 -0 1.4803e-16)
(1.4803e-16 -5.66173e-17 -0 1.4803e-16 -0 1.4803e-16)
(1.4803e-16 -5.70301e-17 -0 1.4803e-16 -0 1.4803e-16)
(1.4803e-16 -5.70483e-17 -0 1.4803e-16 -0 1.4803e-16)
(1.4803e-16 -5.7106e-17 -0 1.4803e-16 -0 1.4803e-16)
(1.4803e-16 -5.72826e-17 -0 1.4803e-16 -0 1.4803e-16)
(1.4803e-16 -5.76487e-17 -0 1.4803e-16 -0 1.4803e-16)
(1.4803e-16 -5.76671e-17 -0 1.4803e-16 -0 1.4803e-16)
(1.4803e-16 -5.7726e-17 -0 1.4803e-16 -0 1.4803e-16)
(1.4803e-16 -5.7912e-17 -0 1.4803e-16 -0 1.4803e-16)
(1.4803e-16 -5.82384e-17 -0 1.4803e-16 -0 1.4803e-16)
(1.4803e-16 -5.82574e-17 -0 1.4803e-16 -0 1.4803e-16)
(1.4803e-16 -5.83176e-17 -0 1.4803e-16 -0 1.4803e-16)
(1.4803e-16 -5.85131e-17 -0 1.4803e-16 -0 1.4803e-16)
(1.4803e-16 -5.88059e-17 -0 1.4803e-16 -0 1.4803e-16)
(1.4803e-16 -5.88257e-17 -0 1.4803e-16 -0 1.4803e-16)
(1.4803e-16 -5.8887e-17 -0 1.4803e-16 -0 1.4803e-16)
(1.4803e-16 -5.90924e-17 -0 1.4803e-16 -0 1.4803e-16)
(1.4803e-16 -5.93565e-17 -0 1.4803e-16 -0 1.4803e-16)
(1.4803e-16 -5.93775e-17 -0 1.4803e-16 -0 1.4803e-16)
(1.4803e-16 -5.94393e-17 -0 1.4803e-16 -0 1.4803e-16)
(1.4803e-16 -5.96554e-17 -0 1.4803e-16 -0 1.4803e-16)
(1.4803e-16 -5.98953e-17 -0 1.4803e-16 -0 1.4803e-16)
(1.4803e-16 -5.99178e-17 -0 1.4803e-16 -0 1.4803e-16)
(1.4803e-16 -5.99796e-17 -0 1.4803e-16 -0 1.4803e-16)
(1.4803e-16 -6.02072e-17 -0 1.4803e-16 -0 1.4803e-16)
(1.4803e-16 -6.0428e-17 -0 1.4803e-16 -0 1.4803e-16)
(1.4803e-16 -6.04524e-17 -0 1.4803e-16 -0 1.4803e-16)
(1.4803e-16 -6.05134e-17 -0 1.4803e-16 -0 1.4803e-16)
(1.4803e-16 -6.07535e-17 -0 1.4803e-16 -0 1.4803e-16)
(1.4803e-16 -6.09607e-17 -0 1.4803e-16 -0 1.4803e-16)
(1.4803e-16 -6.09872e-17 -0 1.4803e-16 -0 1.4803e-16)
(1.4803e-16 -6.1047e-17 -0 1.4803e-16 -0 1.4803e-16)
(1.4803e-16 -6.13006e-17 -0 1.4803e-16 -0 1.4803e-16)
(1.4803e-16 -6.14998e-17 -0 1.4803e-16 -0 1.4803e-16)
(1.4803e-16 -6.1528e-17 -0 1.4803e-16 -0 1.4803e-16)
(1.4803e-16 -6.15868e-17 -0 1.4803e-16 -0 1.4803e-16)
(1.4803e-16 -6.18547e-17 -0 1.4803e-16 -0 1.4803e-16)
(1.4803e-16 -6.20486e-17 -0 1.4803e-16 -0 1.4803e-16)
(1.4803e-16 -6.20775e-17 -0 1.4803e-16 -0 1.4803e-16)
(1.4803e-16 -6.21364e-17 -0 1.4803e-16 -0 1.4803e-16)
(1.4803e-16 -6.24194e-17 -0 1.4803e-16 -0 1.4803e-16)
(1.4803e-16 -6.26046e-17 -0 1.4803e-16 -0 1.4803e-16)
(1.4803e-16 -6.26342e-17 -0 1.4803e-16 -0 1.4803e-16)
(1.4803e-16 -6.26934e-17 -0 1.4803e-16 -0 1.4803e-16)
(1.4803e-16 -6.29926e-17 -0 1.4803e-16 -0 1.4803e-16)
(1.4803e-16 -6.3158e-17 -0 1.4803e-16 -0 1.4803e-16)
(1.4803e-16 -6.31899e-17 -0 1.4803e-16 -0 1.4803e-16)
(1.4803e-16 -6.32488e-17 -0 1.4803e-16 -0 1.4803e-16)
(1.4803e-16 -6.3566e-17 -0 1.4803e-16 -0 1.4803e-16)
(1.4803e-16 -6.36935e-17 -0 1.4803e-16 -0 1.4803e-16)
(1.4803e-16 -6.37331e-17 -0 1.4803e-16 -0 1.4803e-16)
(1.4803e-16 -6.37906e-17 -0 1.4803e-16 -0 1.4803e-16)
(1.4803e-16 -6.41279e-17 -0 1.4803e-16 -0 1.4803e-16)
(1.4803e-16 -6.41915e-17 -0 1.4803e-16 -0 1.4803e-16)
(1.4803e-16 -6.42542e-17 -0 1.4803e-16 -0 1.4803e-16)
(1.4803e-16 -6.43074e-17 -0 1.4803e-16 -0 1.4803e-16)
(1.4803e-16 -6.46655e-17 -0 1.4803e-16 -0 1.4803e-16)
(1.4803e-16 -6.46795e-17 -0 1.4803e-16 -0 1.4803e-16)
(1.4803e-16 -6.47306e-17 -0 1.4803e-16 -0 1.4803e-16)
(1.4803e-16 -6.47912e-17 -0 1.4803e-16 -0 1.4803e-16)
(1.4803e-16 -6.51676e-17 -0 1.4803e-16 -0 1.4803e-16)
(1.4803e-16 -6.51424e-17 -0 1.4803e-16 -0 1.4803e-16)
(1.4803e-16 -6.51613e-17 -0 1.4803e-16 -0 1.4803e-16)
(1.4803e-16 -6.52359e-17 -0 1.4803e-16 -0 1.4803e-16)
(1.4803e-16 -6.56255e-17 -0 1.4803e-16 -0 1.4803e-16)
(1.4803e-16 -6.55384e-17 -0 1.4803e-16 -0 1.4803e-16)
(1.4803e-16 -6.55542e-17 -0 1.4803e-16 -0 1.4803e-16)
(1.4803e-16 -6.5635e-17 -0 1.4803e-16 -0 1.4803e-16)
(1.4803e-16 -6.60343e-17 -0 1.4803e-16 -0 1.4803e-16)
(1.4803e-16 -6.58856e-17 -0 1.4803e-16 -0 1.4803e-16)
(1.4803e-16 -6.58954e-17 -0 1.4803e-16 -0 1.4803e-16)
(1.4803e-16 -6.59879e-17 -0 1.4803e-16 -0 1.4803e-16)
(1.48061e-16 -6.64048e-17 -0 1.48061e-16 -0 1.48061e-16)
(1.4805e-16 -6.61901e-17 -0 1.4805e-16 -0 1.4805e-16)
(1.4803e-16 -6.6175e-17 -0 1.4803e-16 -0 1.4803e-16)
(1.4803e-16 -6.6295e-17 -0 1.4803e-16 -0 1.4803e-16)
(1.48173e-16 -6.67572e-17 -0 1.48173e-16 -0 1.48173e-16)
(1.48156e-16 -6.64757e-17 -0 1.48156e-16 -0 1.48156e-16)
(1.4803e-16 -6.63963e-17 -0 1.4803e-16 -0 1.4803e-16)
(1.48051e-16 -6.65548e-17 -0 1.48051e-16 -0 1.48051e-16)
(1.48293e-16 -6.70616e-17 -0 1.48293e-16 -0 1.48293e-16)
(1.48264e-16 -6.67032e-17 -0 1.48264e-16 -0 1.48264e-16)
(1.48092e-16 -6.66063e-17 -0 1.48092e-16 -0 1.48092e-16)
(1.48115e-16 -6.67725e-17 -0 1.48115e-16 -0 1.48115e-16)
(1.48404e-16 -6.7309e-17 -0 1.48404e-16 -0 1.48404e-16)
(1.48356e-16 -6.68641e-17 -0 1.48356e-16 -0 1.48356e-16)
(1.4815e-16 -6.67618e-17 -0 1.4815e-16 -0 1.4815e-16)
(1.48173e-16 -6.69297e-17 -0 1.48173e-16 -0 1.48173e-16)
(1.48494e-16 -6.7493e-17 -0 1.48494e-16 -0 1.48494e-16)
(1.48417e-16 -6.69641e-17 -0 1.48417e-16 -0 1.48417e-16)
(1.48191e-16 -6.68529e-17 -0 1.48191e-16 -0 1.48191e-16)
(1.48213e-16 -6.70258e-17 -0 1.48213e-16 -0 1.48213e-16)
(1.48551e-16 -6.76087e-17 -0 1.48551e-16 -0 1.48551e-16)
(1.4844e-16 -6.69829e-17 -0 1.4844e-16 -0 1.4844e-16)
(1.48207e-16 -6.68835e-17 -0 1.48207e-16 -0 1.48207e-16)
(1.48227e-16 -6.70569e-17 -0 1.48227e-16 -0 1.48227e-16)
(1.48571e-16 -6.76508e-17 -0 1.48571e-16 -0 1.48571e-16)
(1.4842e-16 -6.69371e-17 -0 1.4842e-16 -0 1.4842e-16)
(1.48193e-16 -6.6845e-17 -0 1.48193e-16 -0 1.48193e-16)
(1.48213e-16 -6.70203e-17 -0 1.48213e-16 -0 1.48213e-16)
(1.48552e-16 -6.76206e-17 -0 1.48552e-16 -0 1.48552e-16)
(1.48361e-16 -6.68232e-17 -0 1.48361e-16 -0 1.48361e-16)
(1.48152e-16 -6.67396e-17 -0 1.48152e-16 -0 1.48152e-16)
(1.48172e-16 -6.69174e-17 -0 1.48172e-16 -0 1.48172e-16)
(1.48495e-16 -6.75173e-17 -0 1.48495e-16 -0 1.48495e-16)
(1.48269e-16 -6.66409e-17 -0 1.48269e-16 -0 1.48269e-16)
(1.48093e-16 -6.65714e-17 -0 1.48093e-16 -0 1.48093e-16)
(1.48113e-16 -6.67514e-17 -0 1.48113e-16 -0 1.48113e-16)
(1.48406e-16 -6.7342e-17 -0 1.48406e-16 -0 1.48406e-16)
(1.48158e-16 -6.63951e-17 -0 1.48158e-16 -0 1.48158e-16)
(1.4803e-16 -6.63475e-17 -0 1.4803e-16 -0 1.4803e-16)
(1.48049e-16 -6.65262e-17 -0 1.48049e-16 -0 1.48049e-16)
(1.48295e-16 -6.70975e-17 -0 1.48295e-16 -0 1.48295e-16)
(1.48047e-16 -6.60946e-17 -0 1.48047e-16 -0 1.48047e-16)
(1.4803e-16 -6.60973e-17 -0 1.4803e-16 -0 1.4803e-16)
(1.4803e-16 -6.62605e-17 -0 1.4803e-16 -0 1.4803e-16)
(1.48175e-16 -6.67871e-17 -0 1.48175e-16 -0 1.48175e-16)
(1.4803e-16 -6.57757e-17 -0 1.4803e-16 -0 1.4803e-16)
(1.4803e-16 -6.57958e-17 -0 1.4803e-16 -0 1.4803e-16)
(1.4803e-16 -6.59343e-17 -0 1.4803e-16 -0 1.4803e-16)
(1.48061e-16 -6.64152e-17 -0 1.48061e-16 -0 1.48061e-16)
(1.4803e-16 -6.53803e-17 -0 1.4803e-16 -0 1.4803e-16)
(1.4803e-16 -6.54656e-17 -0 1.4803e-16 -0 1.4803e-16)
(1.4803e-16 -6.55255e-17 -0 1.4803e-16 -0 1.4803e-16)
(1.4803e-16 -6.60113e-17 -0 1.4803e-16 -0 1.4803e-16)
(1.4803e-16 -6.49267e-17 -0 1.4803e-16 -0 1.4803e-16)
(1.4803e-16 -6.49873e-17 -0 1.4803e-16 -0 1.4803e-16)
(1.4803e-16 -6.50704e-17 -0 1.4803e-16 -0 1.4803e-16)
(1.4803e-16 -6.55505e-17 -0 1.4803e-16 -0 1.4803e-16)
(1.4803e-16 -6.44063e-17 -0 1.4803e-16 -0 1.4803e-16)
(1.4803e-16 -6.43861e-17 -0 1.4803e-16 -0 1.4803e-16)
(1.4803e-16 -6.45514e-17 -0 1.4803e-16 -0 1.4803e-16)
(1.4803e-16 -6.50143e-17 -0 1.4803e-16 -0 1.4803e-16)
(1.4803e-16 -6.37851e-17 -0 1.4803e-16 -0 1.4803e-16)
(1.4803e-16 -6.37877e-17 -0 1.4803e-16 -0 1.4803e-16)
(1.4803e-16 -6.39242e-17 -0 1.4803e-16 -0 1.4803e-16)
(1.4803e-16 -6.43941e-17 -0 1.4803e-16 -0 1.4803e-16)
(1.4803e-16 -6.306e-17 -0 1.4803e-16 -0 1.4803e-16)
(1.4803e-16 -6.31579e-17 -0 1.4803e-16 -0 1.4803e-16)
(1.4803e-16 -6.31936e-17 -0 1.4803e-16 -0 1.4803e-16)
(1.4803e-16 -6.36858e-17 -0 1.4803e-16 -0 1.4803e-16)
(1.4803e-16 -6.22291e-17 -0 1.4803e-16 -0 1.4803e-16)
(1.4803e-16 -6.2371e-17 -0 1.4803e-16 -0 1.4803e-16)
(1.4803e-16 -6.23893e-17 -0 1.4803e-16 -0 1.4803e-16)
(1.4803e-16 -6.2885e-17 -0 1.4803e-16 -0 1.4803e-16)
(1.4803e-16 -6.13147e-17 -0 1.4803e-16 -0 1.4803e-16)
(1.4803e-16 -6.14746e-17 -0 1.4803e-16 -0 1.4803e-16)
(1.4803e-16 -6.14833e-17 -0 1.4803e-16 -0 1.4803e-16)
(1.4803e-16 -6.19839e-17 -0 1.4803e-16 -0 1.4803e-16)
(1.4803e-16 -6.03025e-17 -0 1.4803e-16 -0 1.4803e-16)
(1.4803e-16 -6.04676e-17 -0 1.4803e-16 -0 1.4803e-16)
(1.4803e-16 -6.04682e-17 -0 1.4803e-16 -0 1.4803e-16)
(1.4803e-16 -6.09746e-17 -0 1.4803e-16 -0 1.4803e-16)
(1.4803e-16 -5.91804e-17 -0 1.4803e-16 -0 1.4803e-16)
(1.4803e-16 -5.93458e-17 -0 1.4803e-16 -0 1.4803e-16)
(1.4803e-16 -5.9339e-17 -0 1.4803e-16 -0 1.4803e-16)
(1.4803e-16 -5.98492e-17 -0 1.4803e-16 -0 1.4803e-16)
(1.4803e-16 -5.7937e-17 -0 1.4803e-16 -0 1.4803e-16)
(1.4803e-16 -5.8103e-17 -0 1.4803e-16 -0 1.4803e-16)
(1.4803e-16 -5.8092e-17 -0 1.4803e-16 -0 1.4803e-16)
(1.4803e-16 -5.85987e-17 -0 1.4803e-16 -0 1.4803e-16)
(1.4803e-16 -5.65619e-17 -0 1.4803e-16 -0 1.4803e-16)
(1.4803e-16 -5.67306e-17 -0 1.4803e-16 -0 1.4803e-16)
(1.4803e-16 -5.67191e-17 -0 1.4803e-16 -0 1.4803e-16)
(1.4803e-16 -5.72143e-17 -0 1.4803e-16 -0 1.4803e-16)
(1.4803e-16 -5.50451e-17 -0 1.4803e-16 -0 1.4803e-16)
(1.4803e-16 -5.52165e-17 -0 1.4803e-16 -0 1.4803e-16)
(1.4803e-16 -5.52091e-17 -0 1.4803e-16 -0 1.4803e-16)
(1.4803e-16 -5.5685e-17 -0 1.4803e-16 -0 1.4803e-16)
(1.4803e-16 -5.33749e-17 -0 1.4803e-16 -0 1.4803e-16)
(1.4803e-16 -5.35449e-17 -0 1.4803e-16 -0 1.4803e-16)
(1.4803e-16 -5.35425e-17 -0 1.4803e-16 -0 1.4803e-16)
(1.4803e-16 -5.40031e-17 -0 1.4803e-16 -0 1.4803e-16)
(1.4803e-16 -5.15393e-17 -0 1.4803e-16 -0 1.4803e-16)
(1.4803e-16 -5.17079e-17 -0 1.4803e-16 -0 1.4803e-16)
(1.4803e-16 -5.17119e-17 -0 1.4803e-16 -0 1.4803e-16)
(1.4803e-16 -5.21533e-17 -0 1.4803e-16 -0 1.4803e-16)
(1.4803e-16 -4.95273e-17 -0 1.4803e-16 -0 1.4803e-16)
(1.4803e-16 -4.9693e-17 -0 1.4803e-16 -0 1.4803e-16)
(1.4803e-16 -4.97014e-17 -0 1.4803e-16 -0 1.4803e-16)
(1.4803e-16 -5.01235e-17 -0 1.4803e-16 -0 1.4803e-16)
(1.4803e-16 -4.73267e-17 -0 1.4803e-16 -0 1.4803e-16)
(1.4803e-16 -4.74869e-17 -0 1.4803e-16 -0 1.4803e-16)
(1.4803e-16 -4.74972e-17 -0 1.4803e-16 -0 1.4803e-16)
(1.4803e-16 -4.79012e-17 -0 1.4803e-16 -0 1.4803e-16)
(1.4803e-16 -4.49249e-17 -0 1.4803e-16 -0 1.4803e-16)
(1.4803e-16 -4.5076e-17 -0 1.4803e-16 -0 1.4803e-16)
(1.4803e-16 -4.50866e-17 -0 1.4803e-16 -0 1.4803e-16)
(1.4803e-16 -4.54732e-17 -0 1.4803e-16 -0 1.4803e-16)
(1.4803e-16 -4.23086e-17 -0 1.4803e-16 -0 1.4803e-16)
(1.4803e-16 -4.24459e-17 -0 1.4803e-16 -0 1.4803e-16)
(1.4803e-16 -4.24573e-17 -0 1.4803e-16 -0 1.4803e-16)
(1.4803e-16 -4.28268e-17 -0 1.4803e-16 -0 1.4803e-16)
(1.4803e-16 -3.94643e-17 -0 1.4803e-16 -0 1.4803e-16)
(1.4803e-16 -3.95812e-17 -0 1.4803e-16 -0 1.4803e-16)
(1.4803e-16 -3.95977e-17 -0 1.4803e-16 -0 1.4803e-16)
(1.4803e-16 -3.99508e-17 -0 1.4803e-16 -0 1.4803e-16)
(1.4803e-16 -3.6377e-17 -0 1.4803e-16 -0 1.4803e-16)
(1.4803e-16 -3.64633e-17 -0 1.4803e-16 -0 1.4803e-16)
(1.4803e-16 -3.64973e-17 -0 1.4803e-16 -0 1.4803e-16)
(1.4803e-16 -3.6836e-17 -0 1.4803e-16 -0 1.4803e-16)
(1.4803e-16 -3.3028e-17 -0 1.4803e-16 -0 1.4803e-16)
(1.4803e-16 -3.30677e-17 -0 1.4803e-16 -0 1.4803e-16)
(1.4803e-16 -3.31436e-17 -0 1.4803e-16 -0 1.4803e-16)
(1.4803e-16 -3.34769e-17 -0 1.4803e-16 -0 1.4803e-16)
(1.4803e-16 -2.93865e-17 -0 1.4803e-16 -0 1.4803e-16)
(1.4803e-16 -2.95375e-17 -0 1.4803e-16 -0 1.4803e-16)
(1.4803e-16 -2.94707e-17 -0 1.4803e-16 -0 1.4803e-16)
(1.4803e-16 -2.98626e-17 -0 1.4803e-16 -0 1.4803e-16)
(1.4803e-16 -2.55407e-17 -0 1.4803e-16 -0 1.4803e-16)
(1.4803e-16 -2.56667e-17 -0 1.4803e-16 -0 1.4803e-16)
(1.4803e-16 -2.56109e-17 -0 1.4803e-16 -0 1.4803e-16)
(1.4803e-16 -2.59546e-17 -0 1.4803e-16 -0 1.4803e-16)
(1.4803e-16 -2.14339e-17 -0 1.4803e-16 -0 1.4803e-16)
(1.4803e-16 -2.15274e-17 -0 1.4803e-16 -0 1.4803e-16)
(1.4803e-16 -2.14916e-17 -0 1.4803e-16 -0 1.4803e-16)
(1.4803e-16 -2.17745e-17 -0 1.4803e-16 -0 1.4803e-16)
(1.4803e-16 -1.70743e-17 -0 1.4803e-16 -0 1.4803e-16)
(1.4803e-16 -1.7122e-17 -0 1.4803e-16 -0 1.4803e-16)
(1.4803e-16 -1.71298e-17 -0 1.4803e-16 -0 1.4803e-16)
(1.4803e-16 -1.73267e-17 -0 1.4803e-16 -0 1.4803e-16)
(1.4803e-16 -1.24802e-17 -0 1.4803e-16 -0 1.4803e-16)
(1.4803e-16 -1.24576e-17 -0 1.4803e-16 -0 1.4803e-16)
(1.4803e-16 -1.25353e-17 -0 1.4803e-16 -0 1.4803e-16)
(1.4803e-16 -1.26273e-17 -0 1.4803e-16 -0 1.4803e-16)
(1.4803e-16 -7.62131e-18 -0 1.4803e-16 -0 1.4803e-16)
(1.4803e-16 -7.61028e-18 -0 1.4803e-16 -0 1.4803e-16)
(1.4803e-16 -7.66398e-18 -0 1.4803e-16 -0 1.4803e-16)
(1.4803e-16 -7.71417e-18 -0 1.4803e-16 -0 1.4803e-16)
(1.4803e-16 -2.5713e-18 -0 1.4803e-16 -0 1.4803e-16)
(1.4803e-16 -2.57037e-18 -0 1.4803e-16 -0 1.4803e-16)
(1.4803e-16 -2.58823e-18 -0 1.4803e-16 -0 1.4803e-16)
(1.4803e-16 -2.60635e-18 -0 1.4803e-16 -0 1.4803e-16)
)
;

boundaryField
{
    inlet
    {
        type            cyclic;
    }
    outlet
    {
        type            cyclic;
    }
    fixedWalls-bottom
    {
        type            kqRWallFunction;
        value           uniform (1.4803e-16 -0 -0 1.4803e-16 -0 1.4803e-16);
    }
    fixedWalls-top
    {
        type            symmetry;
    }
    frontAndBack
    {
        type            empty;
    }
}


// ************************************************************************* //
