y,U_x,U_y,U_z
0,0,0,0
0.0351759,0.0411238,-3.20409e-10,0
0.0703518,0.0821361,-7.73059e-10,0
0.105528,0.122591,-1.88695e-09,0
0.140704,0.162934,-3.29175e-09,0
0.175879,0.202993,-5.44196e-09,0
0.211055,0.242912,-7.81543e-09,0
0.246231,0.282561,-1.0621e-08,0
0.281407,0.322064,-1.36188e-08,0
0.316583,0.36129,-1.69817e-08,0
0.351759,0.400388,-2.04591e-08,0
0.386935,0.439178,-2.42142e-08,0
0.422111,0.477886,-2.80115e-08,0
0.457286,0.516224,-3.20009e-08,0
0.492462,0.554559,-3.59911e-08,0
0.527638,0.592432,-4.00675e-08,0
0.562814,0.630305,-4.41439e-08,0
0.59799,0.667808,-4.81842e-08,0
0.633166,0.705202,-5.22137e-08,0
0.668342,0.742362,-5.61663e-08,0
0.703518,0.779262,-6.00333e-08,0
0.738693,0.816107,-6.38709e-08,0
0.773869,0.852498,-6.74676e-08,0
0.809045,0.888889,-7.10643e-08,0
0.844221,0.924925,-7.44139e-08,0
0.879397,0.960791,-7.76449e-08,0
0.914573,0.996564,-8.07983e-08,0
0.949749,1.03189,-8.35816e-08,0
0.984925,1.06722,-8.63648e-08,0
1.0201,1.10221,-8.88415e-08,0
1.05528,1.13699,-9.11127e-08,0
1.09045,1.17176,-9.33839e-08,0
1.12563,1.20599,-9.51178e-08,0
1.1608,1.24019,-9.68235e-08,0
1.19598,1.27426,-9.83928e-08,0
1.23116,1.30788,-9.9495e-08,0
1.26633,1.34149,-1.00597e-07,0
1.30151,1.37485,-1.01433e-07,0
1.33668,1.40786,-1.01906e-07,0
1.37186,1.44087,-1.0238e-07,0
1.40704,1.47354,-1.02507e-07,0
1.44221,1.50593,-1.02341e-07,0
1.47739,1.53832,-1.02175e-07,0
1.51256,1.57034,-1.01642e-07,0
1.54774,1.60209,-1.00838e-07,0
1.58291,1.63385,-1.00035e-07,0
1.61809,1.66525,-9.89069e-08,0
1.65327,1.69635,-9.74839e-08,0
1.68844,1.72745,-9.60608e-08,0
1.72362,1.75828,-9.44098e-08,0
1.75879,1.78871,-9.23962e-08,0
1.79397,1.81913,-9.03825e-08,0
1.82915,1.84945,-8.82818e-08,0
1.86432,1.87918,-8.57159e-08,0
1.8995,1.90891,-8.315e-08,0
1.93467,1.93864,-8.05841e-08,0
1.96985,1.96778,-7.75995e-08,0
2.00503,1.9968,-7.4533e-08,0
2.0402,2.02582,-7.14666e-08,0
2.07538,2.05454,-6.82149e-08,0
2.11055,2.08283,-6.47078e-08,0
2.14573,2.11112,-6.12007e-08,0
2.1809,2.13942,-5.76935e-08,0
2.21608,2.16703,-5.38499e-08,0
2.25126,2.19458,-4.99712e-08,0
2.28643,2.22212,-4.60926e-08,0
2.32161,2.24944,-4.21274e-08,0
2.35678,2.27622,-3.79511e-08,0
2.39196,2.30299,-3.37747e-08,0
2.42714,2.32977,-2.95984e-08,0
2.46231,2.35609,-2.52972e-08,0
2.49749,2.38208,-2.09026e-08,0
2.53266,2.40807,-1.6508e-08,0
2.56784,2.43405,-1.21134e-08,0
2.60302,2.45943,-7.6156e-09,0
2.63819,2.48461,-3.08273e-09,0
2.67337,2.50979,1.45013e-09,0
2.70854,2.53496,5.983e-09,0
2.74372,2.55947,1.05613e-08,0
2.77889,2.58381,1.51501e-08,0
2.81407,2.60815,1.97389e-08,0
2.84925,2.6325,2.43278e-08,0
2.88442,2.65619,2.88994e-08,0
2.9196,2.67968,3.34658e-08,0
2.95477,2.70318,3.80321e-08,0
2.98995,2.72667,4.25984e-08,0
3.02513,2.74963,4.71044e-08,0
3.0603,2.77225,5.15698e-08,0
3.09548,2.79486,5.60352e-08,0
3.13065,2.81748,6.05007e-08,0
3.16583,2.83981,6.49127e-08,0
3.20101,2.86152,6.92082e-08,0
3.23618,2.88324,7.35037e-08,0
3.27136,2.90495,7.77992e-08,0
3.30653,2.92667,8.20947e-08,0
3.34171,2.94754,8.61785e-08,0
3.37688,2.96833,9.02405e-08,0
3.41206,2.98912,9.43026e-08,0
3.44724,3.00991,9.83647e-08,0
3.48241,3.03035,1.0232e-07,0
3.51759,3.05019,1.06095e-07,0
3.55276,3.07003,1.09871e-07,0
3.58794,3.08987,1.13647e-07,0
3.62312,3.10971,1.17422e-07,0
3.65829,3.12886,1.20965e-07,0
3.69347,3.14773,1.24414e-07,0
3.72864,3.1666,1.27862e-07,0
3.76382,3.18547,1.3131e-07,0
3.79899,3.20433,1.34758e-07,0
3.83417,3.22229,1.37884e-07,0
3.86935,3.24016,1.4098e-07,0
3.90452,3.25803,1.44075e-07,0
3.9397,3.2759,1.4717e-07,0
3.97487,3.29376,1.50265e-07,0
4.01005,3.31063,1.53008e-07,0
4.04523,3.32747,1.55742e-07,0
4.0804,3.34431,1.58476e-07,0
4.11558,3.36115,1.6121e-07,0
4.15075,3.378,1.63944e-07,0
4.18593,3.39389,1.66361e-07,0
4.22111,3.40967,1.68743e-07,0
4.25628,3.42546,1.71125e-07,0
4.29146,3.44125,1.73507e-07,0
4.32663,3.45704,1.75889e-07,0
4.36181,3.47209,1.78053e-07,0
4.39698,3.48679,1.80114e-07,0
4.43216,3.50149,1.82174e-07,0
4.46734,3.5162,1.84234e-07,0
4.50251,3.5309,1.86295e-07,0
4.53769,3.54526,1.88269e-07,0
4.57286,3.55885,1.90048e-07,0
4.60804,3.57244,1.91827e-07,0
4.64322,3.58603,1.93606e-07,0
4.67839,3.59962,1.95385e-07,0
4.71357,3.61321,1.97164e-07,0
4.74874,3.62591,1.98752e-07,0
4.78392,3.63836,2.00288e-07,0
4.8191,3.65081,2.01823e-07,0
4.85427,3.66325,2.03358e-07,0
4.88945,3.6757,2.04894e-07,0
4.92462,3.68804,2.06405e-07,0
4.9598,3.69931,2.07687e-07,0
4.99497,3.71059,2.08969e-07,0
5.03015,3.72186,2.10251e-07,0
5.06533,3.73313,2.11533e-07,0
5.1005,3.74441,2.12816e-07,0
5.13568,3.75538,2.14004e-07,0
5.17085,3.76545,2.14907e-07,0
5.20603,3.77552,2.1581e-07,0
5.24121,3.78559,2.16713e-07,0
5.27638,3.79565,2.17616e-07,0
5.31156,3.80572,2.18519e-07,0
5.34673,3.8155,2.1925e-07,0
5.38191,3.82433,2.19413e-07,0
5.41709,3.83316,2.19576e-07,0
5.45226,3.84198,2.19738e-07,0
5.48744,3.85081,2.19901e-07,0
5.52261,3.85964,2.20064e-07,0
5.55779,3.86841,2.20166e-07,0
5.59296,3.87596,2.18928e-07,0
5.62814,3.88351,2.1769e-07,0
5.66332,3.89107,2.16452e-07,0
5.69849,3.89862,2.15213e-07,0
5.73367,3.90617,2.13975e-07,0
5.76884,3.91372,2.12737e-07,0
5.80402,3.92039,2.0997e-07,0
5.8392,3.92663,2.06474e-07,0
5.87437,3.93288,2.02978e-07,0
5.90955,3.93912,1.99482e-07,0
5.94472,3.94536,1.95986e-07,0
5.9799,3.95161,1.9249e-07,0
6.01508,3.95768,1.88659e-07,0
6.05025,3.96257,1.82561e-07,0
6.08543,3.96747,1.76462e-07,0
6.1206,3.97237,1.70364e-07,0
6.15578,3.97727,1.64266e-07,0
6.19095,3.98216,1.58167e-07,0
6.22613,3.98706,1.52069e-07,0
6.26131,3.99141,1.45493e-07,0
6.29648,3.99493,1.38175e-07,0
6.33166,3.99844,1.30857e-07,0
6.36683,4.00195,1.23539e-07,0
6.40201,4.00546,1.16221e-07,0
6.43719,4.00898,1.08903e-07,0
6.47236,4.01249,1.01585e-07,0
6.50754,4.01534,9.4492e-08,0
6.54271,4.01743,8.76597e-08,0
6.57789,4.01952,8.08275e-08,0
6.61307,4.02161,7.39953e-08,0
6.64824,4.0237,6.7163e-08,0
6.68342,4.02578,6.03308e-08,0
6.71859,4.02787,5.34986e-08,0
6.75377,4.02949,4.6719e-08,0
6.78894,4.03017,4.00449e-08,0
6.82412,4.03085,3.33707e-08,0
6.8593,4.03153,2.66966e-08,0
6.89447,4.0322,2.00224e-08,0
6.92965,4.03288,1.33483e-08,0
6.96482,4.03356,6.67415e-09,0
7,4.03424,-1.6852e-22,0