# Residuals   
# Time        	p             	Ux            	Uy            
0             	N/A	N/A
1             	9.999991e-01	0.000000e+00	0.000000e+00
2             	1.000000e+00	4.127907e-01	9.999999e-01
3             	8.695099e-02	5.105710e-02	2.610410e-01
4             	1.645708e-01	2.169171e-02	1.171764e-01
5             	2.057149e-01	1.542985e-02	1.167796e-01
6             	2.234896e-01	1.220798e-02	1.507207e-01
7             	2.276770e-01	9.934663e-03	1.654608e-01
8             	2.235197e-01	8.290576e-03	1.595777e-01
9             	2.217751e-01	7.011345e-03	1.434266e-01
10            	2.293029e-01	5.995123e-03	1.305869e-01
11            	2.350065e-01	5.187159e-03	1.449741e-01
12            	2.171145e-01	4.525664e-03	1.485292e-01
13            	1.596391e-01	3.962605e-03	2.252012e-01
14            	1.142378e-01	3.488239e-03	2.161680e-01
15            	7.654604e-02	3.074733e-03	1.402613e-01
16            	5.707935e-02	2.732836e-03	1.342004e-01
17            	5.021042e-02	2.431044e-03	1.236982e-01
18            	4.917096e-02	2.171257e-03	1.110866e-01
19            	4.958382e-02	1.940536e-03	1.023350e-01
20            	4.976162e-02	1.741677e-03	9.087867e-02
21            	5.016185e-02	1.568599e-03	8.555153e-02
22            	5.021185e-02	1.419602e-03	7.893497e-02
23            	4.974224e-02	1.287408e-03	7.370298e-02
24            	4.888714e-02	1.171023e-03	6.922779e-02
25            	4.772013e-02	1.069243e-03	6.521017e-02
26            	4.630421e-02	9.795139e-04	6.211512e-02
27            	4.478570e-02	9.027584e-04	5.994054e-02
28            	4.303975e-02	8.362750e-04	5.797000e-02
29            	4.114527e-02	7.778316e-04	5.612399e-02
30            	3.931182e-02	7.267800e-04	5.442678e-02
31            	3.763994e-02	6.824320e-04	5.248848e-02
32            	3.603732e-02	6.446184e-04	5.036951e-02
33            	3.447904e-02	6.140884e-04	4.818148e-02
34            	3.299547e-02	5.912733e-04	4.553185e-02
35            	3.156791e-02	5.729733e-04	4.254599e-02
36            	3.024405e-02	5.555249e-04	3.957019e-02
37            	2.896561e-02	5.388635e-04	3.669562e-02
38            	2.778861e-02	5.229301e-04	3.417637e-02
39            	2.647781e-02	5.081297e-04	3.054716e-02
40            	2.555727e-02	4.942464e-04	2.898194e-02
41            	2.460089e-02	4.808429e-04	2.711606e-02
42            	2.370588e-02	4.678909e-04	2.554693e-02
43            	2.297196e-02	4.553646e-04	2.418704e-02
44            	2.229999e-02	4.432404e-04	2.306349e-02
45            	2.152312e-02	4.314967e-04	2.222544e-02
46            	2.097854e-02	4.204249e-04	2.056393e-02
47            	2.043328e-02	4.098160e-04	1.977127e-02
48            	1.991157e-02	3.994807e-04	1.919101e-02
49            	1.943471e-02	3.894096e-04	1.870291e-02
50            	1.887817e-02	3.795939e-04	1.929515e-02
51            	1.848615e-02	3.700252e-04	1.767574e-02
52            	1.812431e-02	3.606960e-04	1.722848e-02
53            	5.626137e-02	3.515990e-04	1.681771e-02
54            	5.784548e-02	3.420700e-04	2.546399e-02
55            	5.021818e-02	3.331628e-04	3.337654e-02
56            	4.154202e-02	3.245147e-04	3.305890e-02
57            	3.474072e-02	3.161193e-04	3.195002e-02
58            	3.029093e-02	3.079575e-04	3.395754e-02
59            	2.692406e-02	3.000151e-04	3.448187e-02
60            	2.433276e-02	2.922804e-04	3.376345e-02
61            	2.235737e-02	2.847436e-04	3.219272e-02
62            	2.086144e-02	2.773966e-04	3.009433e-02
63            	1.970492e-02	2.702326e-04	2.774731e-02
64            	1.876958e-02	2.633248e-04	2.539772e-02
65            	1.799710e-02	2.566176e-04	2.321787e-02
66            	1.739288e-02	2.500662e-04	2.129275e-02
67            	1.689818e-02	2.436673e-04	1.966147e-02
68            	1.649121e-02	2.374180e-04	1.829649e-02
69            	1.615504e-02	2.313154e-04	1.718123e-02
70            	1.587386e-02	2.253567e-04	1.626940e-02
71            	1.563723e-02	2.195393e-04	1.551588e-02
72            	1.543723e-02	2.138604e-04	1.488200e-02
73            	1.526925e-02	2.083176e-04	1.434575e-02
74            	1.512501e-02	2.029082e-04	1.388933e-02
75            	1.500176e-02	1.976298e-04	1.349457e-02
76            	1.489385e-02	1.924797e-04	1.316769e-02
77            	1.480525e-02	1.874554e-04	1.289692e-02
78            	1.472353e-02	1.825545e-04	1.266287e-02
79            	1.464832e-02	1.777745e-04	1.245459e-02
80            	1.458336e-02	1.731215e-04	1.226920e-02
81            	1.452647e-02	1.686114e-04	1.210690e-02
82            	1.447441e-02	1.642113e-04	1.196243e-02
83            	1.442508e-02	1.599190e-04	1.183195e-02
84            	1.437773e-02	1.557324e-04	1.171134e-02
85            	1.433193e-02	1.516495e-04	1.159855e-02
86            	1.428768e-02	1.476680e-04	1.149440e-02
87            	1.424472e-02	1.437859e-04	1.139564e-02
88            	1.420282e-02	1.400010e-04	1.129964e-02
89            	1.416123e-02	1.363114e-04	1.120687e-02
90            	1.411987e-02	1.327149e-04	1.111578e-02
91            	1.408007e-02	1.292094e-04	1.102743e-02
92            	1.404605e-02	1.257930e-04	1.093814e-02
93            	1.401242e-02	1.224637e-04	1.085044e-02
94            	1.397871e-02	1.192195e-04	1.076408e-02
95            	1.394503e-02	1.160584e-04	1.067897e-02
96            	1.391355e-02	1.129785e-04	1.059546e-02
97            	1.388244e-02	1.099780e-04	1.051379e-02
98            	1.385086e-02	1.070549e-04	1.043492e-02
99            	1.381875e-02	1.042074e-04	1.035487e-02
100           	1.378624e-02	1.014338e-04	1.027628e-02
101           	1.375332e-02	9.873217e-05	1.019509e-02
102           	1.371963e-02	9.610090e-05	1.011113e-02
103           	1.368509e-02	9.353823e-05	1.002421e-02
104           	3.940726e-02	9.104250e-05	9.935392e-03
105           	3.291367e-02	8.876131e-05	1.767870e-02
106           	1.907811e-02	8.650986e-05	2.181583e-02
107           	7.970067e-03	8.431055e-05	1.774255e-02
108           	4.415922e-03	8.216129e-05	1.099601e-02
109           	5.777778e-03	8.006169e-05	3.112940e-02
110           	7.861009e-03	7.801126e-05	2.156161e-02
111           	9.502502e-03	7.600944e-05	1.622594e-02
112           	1.052851e-02	7.405566e-05	1.300727e-02
113           	1.137050e-02	7.214926e-05	1.071004e-02
114           	1.194985e-02	7.028952e-05	1.041071e-02
115           	1.234181e-02	6.847567e-05	9.870773e-03
116           	1.260993e-02	6.670687e-05	9.138514e-03
117           	1.279481e-02	6.498227e-05	8.377930e-03
118           	1.291903e-02	6.330096e-05	7.944178e-03
119           	1.301510e-02	6.166204e-05	7.981000e-03
120           	3.698579e-02	6.006458e-05	8.261565e-03
121           	3.164014e-02	5.865949e-05	1.715537e-02
122           	1.912502e-02	5.725795e-05	2.184397e-02
123           	8.760823e-03	5.588539e-05	1.782525e-02
124           	4.399354e-03	5.454069e-05	1.107693e-02
125           	4.810302e-03	5.322403e-05	8.358438e-03
