/*--------------------------------*- C++ -*----------------------------------*\
  =========                 |
  \\      /  F ield         | OpenFOAM: The Open Source CFD Toolbox
   \\    /   O peration     | Website:  https://openfoam.org
    \\  /    A nd           | Version:  10
     \\/     M anipulation  |
\*---------------------------------------------------------------------------*/
FoamFile
{
    format      ascii;
    class       volScalarField;
    location    "5057";
    object      nut;
}
// * * * * * * * * * * * * * * * * * * * * * * * * * * * * * * * * * * * * * //

dimensions      [0 2 -1 0 0 0 0];

internalField   nonuniform List<scalar> 
400
(
3.15806e-09
3.15818e-09
3.15795e-09
3.15796e-09
5.35851e-07
5.35873e-07
5.35835e-07
5.35837e-07
9.16139e-06
9.16184e-06
9.16122e-06
9.16127e-06
4.21869e-05
4.21885e-05
4.21855e-05
4.21857e-05
9.64414e-05
9.64415e-05
9.64352e-05
9.64352e-05
0.000158922
0.00015892
0.000158909
0.000158909
0.000229989
0.000229985
0.000229971
0.00022997
0.000307793
0.000307788
0.000307771
0.000307769
0.000390744
0.00039074
0.000390721
0.000390717
0.000477512
0.000477509
0.000477489
0.000477482
0.000567081
0.00056708
0.00056706
0.000567049
0.000658652
0.000658649
0.000658628
0.000658617
0.000751431
0.00075142
0.0007514
0.000751407
0.000844309
0.000844284
0.000844282
0.000844357
0.000936744
0.000936727
0.000936732
0.000936828
0.00103006
0.00103005
0.00103006
0.00103017
0.00112421
0.00112419
0.00112421
0.00112435
0.00121916
0.00121915
0.00121918
0.00121933
0.00131493
0.00131493
0.00131495
0.00131512
0.00141155
0.00141154
0.00141157
0.00141174
0.00150904
0.00150903
0.00150906
0.00150924
0.00160744
0.00160744
0.00160747
0.00160764
0.00170682
0.00170682
0.00170686
0.00170701
0.00180722
0.00180722
0.00180726
0.00180739
0.00190868
0.00190869
0.00190874
0.00190883
0.00201125
0.00201126
0.00201133
0.00201136
0.00211495
0.00211497
0.00211504
0.00211502
0.00221811
0.00221813
0.00221813
0.00221804
0.00232017
0.0023202
0.00232019
0.00232007
0.00242178
0.00242183
0.00242182
0.00242171
0.00252336
0.00252341
0.00252342
0.00252332
0.00262512
0.00262517
0.0026252
0.00262512
0.00272717
0.00272721
0.00272725
0.00272718
0.00282952
0.00282955
0.00282959
0.00282953
0.00293211
0.00293213
0.00293217
0.00293211
0.00303485
0.00303488
0.00303491
0.00303485
0.00313764
0.00313767
0.0031377
0.00313763
0.00324038
0.00324041
0.00324044
0.00324037
0.003343
0.00334303
0.00334307
0.00334299
0.00344551
0.00344555
0.00344559
0.00344551
0.00354805
0.00354809
0.00354815
0.00354805
0.00365095
0.00365101
0.00365108
0.00365096
0.00375483
0.0037549
0.00375498
0.00375482
0.00386062
0.0038607
0.00386076
0.00386058
0.00396963
0.00396971
0.00396972
0.00396954
0.00408352
0.00408354
0.00408348
0.00408337
0.00420409
0.004204
0.00420386
0.00420395
0.00433297
0.00433272
0.00433254
0.00433299
0.00447092
0.00447052
0.00447037
0.00447132
0.00461679
0.00461633
0.00461632
0.00461775
0.00476597
0.00476564
0.00476581
0.00476734
0.00490837
0.00490828
0.0049085
0.00490905
0.00502621
0.00502606
0.00502586
0.00502335
0.0051304
0.00513023
0.00513002
0.00512754
0.00523226
0.00523211
0.00523185
0.00522942
0.00533128
0.00533132
0.00533093
0.00532858
0.00542735
0.00542744
0.00542687
0.00542464
0.00551992
0.00552001
0.00551946
0.00551724
0.0056087
0.00560881
0.00560833
0.00560612
0.00569355
0.00569363
0.00569323
0.00569107
0.00577432
0.00577437
0.00577403
0.00577195
0.00585095
0.00585094
0.0058507
0.0058487
0.00592346
0.00592334
0.00592323
0.00592131
0.00599196
0.00599168
0.00599164
0.00598983
0.00605628
0.00605603
0.006056
0.00605431
0.00611662
0.00611641
0.00611638
0.00611482
0.00617304
0.00617289
0.00617285
0.00617142
0.00622563
0.00622551
0.00622547
0.00622418
0.00627444
0.00627434
0.0062743
0.00627316
0.00631951
0.00631945
0.00631941
0.00631842
0.0063609
0.00636089
0.00636086
0.00636002
0.0063987
0.00639874
0.00639871
0.00639803
0.00643299
0.00643309
0.00643306
0.00643254
0.00646386
0.00646402
0.00646399
0.00646365
0.00649146
0.00649165
0.00649161
0.00649147
0.00651595
0.00651607
0.00651607
0.00651614
0.0065374
0.00653745
0.00653757
0.0065378
0.00655599
0.00655609
0.00655627
0.00655662
0.00657192
0.00657222
0.00657229
0.00657279
0.00658544
0.00658579
0.00658587
0.00658656
0.00659677
0.00659709
0.00659724
0.00659812
0.00660613
0.00660631
0.00660666
0.0066077
0.00661369
0.00661421
0.00661426
0.00661553
0.0066198
0.0066204
0.00662042
0.0066219
0.0066247
0.00662532
0.00662537
0.00662701
0.00662866
0.0066292
0.00662936
0.00663113
0.00663191
0.00663221
0.00663262
0.00663448
0.00663467
0.00663443
0.00663537
0.00663732
0.00663704
0.00663676
0.00663781
0.00663976
0.00663925
0.00663899
0.00663993
0.00664208
0.00664143
0.00664135
0.00664196
0.00664437
0.00664367
0.0066433
0.00664455
0.00664661
0.00664604
0.0066457
0.00664688
0.00664908
0.00664856
0.00664838
0.00664929
0.0066517
0.00665118
0.00665172
0.00665191
0.00665438
0.00665391
0.00665453
0.00665465
0.00665716
0.00665657
0.00665714
0.00665735
0.00665992
0.00665891
0.00665931
0.00665973
0.00666256
0.00666054
0.00666206
0.0066614
0.00666492
0.00666197
0.00666377
0.00666313
0.00666664
)
;

boundaryField
{
    inlet
    {
        type            cyclic;
    }
    outlet
    {
        type            cyclic;
    }
    fixedWalls-bottom
    {
        type            nutkWallFunction;
        Cmu             0.09;
        kappa           0.41;
        E               9.8;
        value           uniform 0;
    }
    fixedWalls-top
    {
        type            symmetry;
    }
    frontAndBack
    {
        type            empty;
    }
}


// ************************************************************************* //
