/*--------------------------------*- C++ -*----------------------------------*\
  =========                 |
  \\      /  F ield         | OpenFOAM: The Open Source CFD Toolbox
   \\    /   O peration     | Website:  https://openfoam.org
    \\  /    A nd           | Version:  10
     \\/     M anipulation  |
\*---------------------------------------------------------------------------*/
FoamFile
{
    format      ascii;
    class       surfaceScalarField;
    location    "5057";
    object      phi;
}
// * * * * * * * * * * * * * * * * * * * * * * * * * * * * * * * * * * * * * //

dimensions      [0 3 -1 0 0 0 0];

internalField   nonuniform List<scalar> 
696
(
0.000558014
-4.64212e-09
0.000558013
7.10622e-10
0.000558008
4.64567e-09
-7.10684e-10
0.00169761
-1.85684e-08
0.00169761
3.60786e-09
0.00169759
1.85718e-08
-3.60803e-09
0.00283391
-4.05204e-08
0.00283391
9.91181e-09
0.00283389
4.05236e-08
-9.91206e-09
0.00383779
-6.51961e-08
0.00383778
1.9788e-08
0.00383776
6.51992e-08
-1.97883e-08
0.00463804
-8.7218e-08
0.00463803
3.0231e-08
0.00463801
8.7221e-08
-3.02314e-08
0.00527915
-1.03963e-07
0.00527914
3.90824e-08
0.00527913
1.03966e-07
-3.90827e-08
0.00581329
-1.14616e-07
0.00581328
4.61982e-08
0.00581327
1.14619e-07
-4.61986e-08
0.00627307
-1.19369e-07
0.00627306
5.24108e-08
0.00627306
1.19372e-07
-5.24112e-08
0.00668031
-1.18698e-07
0.0066803
5.89044e-08
0.0066803
1.187e-07
-5.89049e-08
0.00704969
-1.12859e-07
0.00704968
6.67045e-08
0.00704969
1.12861e-07
-6.67049e-08
0.00739126
-1.01686e-07
0.00739125
7.62196e-08
0.00739127
1.01689e-07
-7.62201e-08
0.00771209
-8.48714e-08
0.00771208
8.69136e-08
0.0077121
8.48739e-08
-8.69141e-08
0.00801727
-6.3156e-08
0.00801726
9.74165e-08
0.00801728
6.31584e-08
-9.7417e-08
0.00831061
-4.10345e-08
0.0083106
1.06551e-07
0.00831062
4.1037e-08
-1.06552e-07
0.00859503
-2.19606e-08
0.00859502
1.14137e-07
0.00859504
2.1963e-08
-1.14138e-07
0.00887264
-6.24979e-09
0.00887263
1.20322e-07
0.00887265
6.25216e-09
-1.20322e-07
0.009145
5.95727e-09
0.00914499
1.24952e-07
0.009145
-5.95495e-09
-1.24952e-07
0.00941332
1.46742e-08
0.00941331
1.27863e-07
0.00941332
-1.46718e-08
-1.27863e-07
0.0096786
2.00725e-08
0.0096786
1.28993e-07
0.0096786
-2.00702e-08
-1.28994e-07
0.00994165
2.24008e-08
0.00994165
1.28294e-07
0.00994165
-2.23985e-08
-1.28295e-07
0.0102031
2.19577e-08
0.0102031
1.25765e-07
0.0102031
-2.19554e-08
-1.25766e-07
0.0104636
1.90724e-08
0.0104636
1.21517e-07
0.0104636
-1.90702e-08
-1.21518e-07
0.0107236
1.40931e-08
0.0107236
1.15807e-07
0.0107236
-1.40909e-08
-1.15808e-07
0.0109835
7.39991e-09
0.0109835
1.0904e-07
0.0109835
-7.39776e-09
-1.0904e-07
0.0112436
-5.18818e-10
0.0112437
1.01806e-07
0.0112436
5.20935e-10
-1.01806e-07
0.0115043
-9.03492e-09
0.0115043
9.48181e-08
0.0115043
9.03702e-09
-9.48188e-08
0.0117659
-1.74674e-08
0.0117659
8.86464e-08
0.0117659
1.74694e-08
-8.8647e-08
0.0120285
-2.42418e-08
0.0120285
8.29239e-08
0.0120285
2.42438e-08
-8.29245e-08
0.0122926
-2.80558e-08
0.0122926
7.72465e-08
0.0122926
2.80578e-08
-7.72471e-08
0.0125583
-2.91517e-08
0.0125583
7.20057e-08
0.0125583
2.91537e-08
-7.20064e-08
0.0128259
-2.83569e-08
0.0128259
6.7598e-08
0.0128259
2.83589e-08
-6.75986e-08
0.0130955
-2.65389e-08
0.0130955
6.41722e-08
0.0130955
2.65408e-08
-6.41729e-08
0.0133674
-2.43487e-08
0.0133674
6.1649e-08
0.0133674
2.43506e-08
-6.16496e-08
0.0136417
-2.21615e-08
0.0136417
5.98268e-08
0.0136417
2.21634e-08
-5.98274e-08
0.0139184
-2.01249e-08
0.0139184
5.84825e-08
0.0139184
2.01268e-08
-5.84831e-08
0.0141978
-1.8246e-08
0.0141978
5.74313e-08
0.0141978
1.82479e-08
-5.7432e-08
0.01448
-1.64793e-08
0.01448
5.65486e-08
0.01448
1.64811e-08
-5.65493e-08
0.014765
-1.47899e-08
0.014765
5.57717e-08
0.014765
1.47917e-08
-5.57724e-08
0.0150531
-1.31867e-08
0.0150531
5.50993e-08
0.0150531
1.31885e-08
-5.51e-08
0.0153442
-1.17154e-08
0.0153442
5.45974e-08
0.0153442
1.17172e-08
-5.4598e-08
0.0156386
-1.04174e-08
0.0156386
5.44043e-08
0.0156386
1.04191e-08
-5.4405e-08
0.0159363
-9.25591e-09
0.0159363
5.47153e-08
0.0159363
9.25762e-09
-5.4716e-08
0.0162374
-8.04038e-09
0.0162374
5.5716e-08
0.0162374
8.04207e-09
-5.57167e-08
0.0165419
-6.39257e-09
0.0165419
5.74427e-08
0.0165419
6.39424e-09
-5.74434e-08
0.0168499
-3.83555e-09
0.0168499
5.95796e-08
0.0168499
3.83719e-09
-5.95803e-08
0.0171614
-8.05753e-11
0.0171614
6.12633e-08
0.0171614
8.2196e-11
-6.12639e-08
0.0174764
4.45539e-09
0.0174764
6.10327e-08
0.0174764
-4.45379e-09
-6.10334e-08
0.0177949
8.02649e-09
0.0177949
5.70987e-08
0.0177949
-8.02491e-09
-5.70994e-08
0.0181168
7.17035e-09
0.0181168
4.80348e-08
0.0181168
-7.16879e-09
-4.80355e-08
0.0184421
-2.83564e-09
0.0184421
3.37354e-08
0.0184421
2.83719e-09
-3.37361e-08
0.0187708
-2.59357e-08
0.0187708
1.6052e-08
0.0187708
2.59372e-08
-1.60527e-08
0.0191031
-6.10316e-08
0.0191031
-1.94748e-09
0.0191031
6.10331e-08
1.9468e-09
0.0194392
-9.52537e-08
0.0194392
-1.92859e-08
0.0194392
9.52552e-08
1.92852e-08
0.0197795
-1.19326e-07
0.0197795
-3.5977e-08
0.0197795
1.19327e-07
3.59763e-08
0.0201242
-1.35064e-07
0.0201242
-5.10184e-08
0.0201242
1.35065e-07
5.10178e-08
0.0204732
-1.43872e-07
0.0204733
-6.35616e-08
0.0204732
1.43874e-07
6.3561e-08
0.0208269
-1.46729e-07
0.0208269
-7.337e-08
0.0208269
1.4673e-07
7.33694e-08
0.0211851
-1.44585e-07
0.0211851
-8.05795e-08
0.0211851
1.44586e-07
8.05789e-08
0.021548
-1.38514e-07
0.021548
-8.49893e-08
0.021548
1.38515e-07
8.49888e-08
0.0219158
-1.29554e-07
0.0219158
-8.64913e-08
0.0219158
1.29555e-07
8.64908e-08
0.0222884
-1.18655e-07
0.0222884
-8.52344e-08
0.0222884
1.18657e-07
8.52339e-08
0.022666
-1.06703e-07
0.022666
-8.15e-08
0.022666
1.06704e-07
8.14995e-08
0.0230487
-9.45481e-08
0.0230487
-7.56868e-08
0.0230487
9.45493e-08
7.56863e-08
0.0234365
-8.28235e-08
0.0234365
-6.85146e-08
0.0234365
8.28246e-08
6.85141e-08
0.0238296
-7.18123e-08
0.0238296
-6.05965e-08
0.0238296
7.18134e-08
6.05961e-08
0.0242279
-6.15738e-08
0.0242279
-5.21561e-08
0.0242279
6.15749e-08
5.21557e-08
0.0246317
-5.20865e-08
0.0246317
-4.33707e-08
0.0246317
5.20876e-08
4.33703e-08
0.0250408
-4.32994e-08
0.0250408
-3.44235e-08
0.0250408
4.33004e-08
3.4423e-08
0.0254555
-3.51663e-08
0.0254555
-2.55099e-08
0.0254555
3.51673e-08
2.55094e-08
0.0258758
-2.76374e-08
0.0258758
-1.67889e-08
0.0258758
2.76384e-08
1.67885e-08
0.0263017
-2.06503e-08
0.0263016
-8.35093e-09
0.0263017
2.06512e-08
8.35051e-09
0.0267332
-1.41314e-08
0.0267332
-2.23829e-10
0.0267332
1.41323e-08
2.2342e-10
0.0271705
-7.99876e-09
0.0271704
7.6033e-09
0.0271705
7.99963e-09
-7.60369e-09
0.0276135
-2.17502e-09
0.0276135
1.51389e-08
0.0276135
2.17586e-09
-1.51392e-08
0.0280623
3.37818e-09
0.0280623
2.23092e-08
0.0280623
-3.37738e-09
-2.23096e-08
0.0285169
8.56229e-09
0.0285169
2.88243e-08
0.0285169
-8.56152e-09
-2.88247e-08
0.0289774
1.31025e-08
0.0289774
3.44638e-08
0.0289774
-1.31017e-08
-3.44642e-08
0.0294438
1.68488e-08
0.0294438
3.93345e-08
0.0294438
-1.68481e-08
-3.93349e-08
0.029916
2.0142e-08
0.029916
4.36342e-08
0.029916
-2.01414e-08
-4.36345e-08
0.030394
2.32719e-08
0.030394
4.7463e-08
0.030394
-2.32713e-08
-4.74632e-08
0.030878
2.60874e-08
0.030878
5.0818e-08
0.030878
-2.60868e-08
-5.08183e-08
0.0313677
2.81307e-08
0.0313677
5.37021e-08
0.0313677
-2.81301e-08
-5.37024e-08
0.0318633
2.96013e-08
0.0318633
5.61422e-08
0.0318633
-2.96008e-08
-5.61424e-08
0.0323646
3.10634e-08
0.0323646
5.81613e-08
0.0323646
-3.10629e-08
-5.81615e-08
0.0328716
3.25905e-08
0.0328716
5.97731e-08
0.0328716
-3.259e-08
-5.97733e-08
0.0333842
3.41778e-08
0.0333842
6.09315e-08
0.0333842
-3.41774e-08
-6.09317e-08
0.0339024
3.56156e-08
0.0339024
6.1494e-08
0.0339024
-3.56152e-08
-6.14942e-08
0.0344261
3.60794e-08
0.0344261
6.12036e-08
0.0344261
-3.60791e-08
-6.12038e-08
0.0349551
3.51182e-08
0.0349551
5.99556e-08
0.0349551
-3.51179e-08
-5.99557e-08
0.0354894
3.30783e-08
0.0354894
5.76738e-08
0.0354894
-3.30781e-08
-5.76739e-08
0.0360287
3.04667e-08
0.0360287
5.40547e-08
0.0360287
-3.04665e-08
-5.40548e-08
0.036573
2.73496e-08
0.036573
4.94319e-08
0.036573
-2.73494e-08
-4.94319e-08
0.0371221
2.35139e-08
0.0371221
4.42778e-08
0.0371221
-2.35137e-08
-4.42779e-08
0.0376757
1.91221e-08
0.0376757
3.85695e-08
0.0376757
-1.91219e-08
-3.85696e-08
0.0382338
1.49473e-08
0.0382338
3.24227e-08
0.0382338
-1.49472e-08
-3.24227e-08
0.0387961
1.15157e-08
0.0387961
2.60479e-08
0.0387961
-1.15156e-08
-2.60479e-08
0.0393623
8.59798e-09
0.0393623
1.9573e-08
0.0393623
-8.59791e-09
-1.95731e-08
0.0399322
5.73091e-09
0.0399322
1.30519e-08
0.0399322
-5.73087e-09
-1.3052e-08
0.0405056
2.84395e-09
0.0405056
6.50259e-09
0.0405056
-2.84393e-09
-6.50261e-09
0.0410821
0.0410821
0.0410821
)
;

boundaryField
{
    inlet
    {
        type            cyclic;
        value           nonuniform List<scalar> 
100
(
-0.0410821
-0.0405056
-0.0399322
-0.0393623
-0.0387961
-0.0382338
-0.0376757
-0.0371221
-0.036573
-0.0360287
-0.0354894
-0.0349551
-0.0344261
-0.0339024
-0.0333842
-0.0328716
-0.0323646
-0.0318633
-0.0313677
-0.030878
-0.030394
-0.029916
-0.0294438
-0.0289774
-0.0285169
-0.0280623
-0.0276135
-0.0271705
-0.0267332
-0.0263017
-0.0258758
-0.0254555
-0.0250409
-0.0246317
-0.0242279
-0.0238296
-0.0234365
-0.0230487
-0.022666
-0.0222884
-0.0219158
-0.021548
-0.0211851
-0.0208269
-0.0204732
-0.0201241
-0.0197795
-0.0194392
-0.019103
-0.0187708
-0.0184421
-0.0181168
-0.0177949
-0.0174764
-0.0171614
-0.0168499
-0.0165419
-0.0162374
-0.0159363
-0.0156386
-0.0153442
-0.0150531
-0.014765
-0.01448
-0.0141978
-0.0139184
-0.0136417
-0.0133674
-0.0130955
-0.0128259
-0.0125583
-0.0122926
-0.0120285
-0.0117659
-0.0115043
-0.0112436
-0.0109835
-0.0107236
-0.0104636
-0.0102031
-0.00994165
-0.0096786
-0.00941333
-0.00914501
-0.00887266
-0.00859505
-0.00831063
-0.00801729
-0.00771211
-0.00739127
-0.00704969
-0.00668031
-0.00627306
-0.00581328
-0.00527913
-0.00463802
-0.00383776
-0.00283389
-0.00169759
-0.000558009
)
;
    }
    outlet
    {
        type            cyclic;
        value           nonuniform List<scalar> 
100
(
0.0410821
0.0405056
0.0399322
0.0393623
0.0387961
0.0382338
0.0376757
0.0371221
0.036573
0.0360287
0.0354894
0.0349551
0.0344261
0.0339024
0.0333842
0.0328716
0.0323646
0.0318633
0.0313677
0.030878
0.030394
0.029916
0.0294438
0.0289774
0.0285169
0.0280623
0.0276135
0.0271705
0.0267332
0.0263017
0.0258758
0.0254555
0.0250409
0.0246317
0.0242279
0.0238296
0.0234365
0.0230487
0.022666
0.0222884
0.0219158
0.021548
0.0211851
0.0208269
0.0204732
0.0201241
0.0197795
0.0194392
0.019103
0.0187708
0.0184421
0.0181168
0.0177949
0.0174764
0.0171614
0.0168499
0.0165419
0.0162374
0.0159363
0.0156386
0.0153442
0.0150531
0.014765
0.01448
0.0141978
0.0139184
0.0136417
0.0133674
0.0130955
0.0128259
0.0125583
0.0122926
0.0120285
0.0117659
0.0115043
0.0112436
0.0109835
0.0107236
0.0104636
0.0102031
0.00994165
0.0096786
0.00941333
0.00914501
0.00887266
0.00859505
0.00831063
0.00801729
0.00771211
0.00739127
0.00704969
0.00668031
0.00627306
0.00581328
0.00527913
0.00463802
0.00383776
0.00283389
0.00169759
0.000558009
)
;
    }
    fixedWalls-bottom
    {
        type            calculated;
        value           uniform 0;
    }
    fixedWalls-top
    {
        type            symmetry;
        value           uniform 0;
    }
    frontAndBack
    {
        type            empty;
        value           nonuniform List<scalar> 0();
    }
}


// ************************************************************************* //
