/*--------------------------------*- C++ -*----------------------------------*\
  =========                 |
  \\      /  F ield         | OpenFOAM: The Open Source CFD Toolbox
   \\    /   O peration     | Website:  https://openfoam.org
    \\  /    A nd           | Version:  10
     \\/     M anipulation  |
\*---------------------------------------------------------------------------*/
FoamFile
{
    format      ascii;
    class       volSymmTensorField;
    location    "5057";
    object      R;
}
// * * * * * * * * * * * * * * * * * * * * * * * * * * * * * * * * * * * * * //

dimensions      [0 2 -2 0 0 0 0];

internalField   nonuniform List<symmTensor> 
400
(
(3.47199e-06 -8.24948e-08 -0 3.47199e-06 -0 3.47199e-06)
(3.47213e-06 -8.24986e-08 -0 3.47213e-06 -0 3.47213e-06)
(3.47188e-06 -8.24917e-08 -0 3.47188e-06 -0 3.47188e-06)
(3.47188e-06 -8.24914e-08 -0 3.47188e-06 -0 3.47188e-06)
(0.000103682 -1.36395e-05 -0 0.000103682 -0 0.000103682)
(0.000103686 -1.36401e-05 -0 0.000103686 -0 0.000103686)
(0.000103678 -1.3639e-05 -0 0.000103678 -0 0.000103678)
(0.000103679 -1.3639e-05 -0 0.000103679 -0 0.000103679)
(0.000681687 -0.000209981 -0 0.000681687 -0 0.000681687)
(0.000681711 -0.000209992 -0 0.000681711 -0 0.000681711)
(0.000681663 -0.000209976 -0 0.000681663 -0 0.000681663)
(0.000681664 -0.000209976 -0 0.000681665 -0 0.000681665)
(0.00181699 -0.000774991 -0 0.001817 -0 0.001817)
(0.00181702 -0.000775016 -0 0.00181702 -0 0.00181702)
(0.00181691 -0.000774961 -0 0.00181691 -0 0.00181691)
(0.00181691 -0.000774965 -0 0.00181691 -0 0.00181691)
(0.00286383 -0.00133168 -0 0.00286383 -0 0.00286383)
(0.00286381 -0.00133167 -0 0.00286381 -0 0.00286381)
(0.00286365 -0.0013316 -0 0.00286365 -0 0.00286365)
(0.00286366 -0.0013316 -0 0.00286366 -0 0.00286366)
(0.00359353 -0.00167102 -0 0.00359354 -0 0.00359354)
(0.00359348 -0.00167099 -0 0.00359347 -0 0.00359347)
(0.00359328 -0.0016709 -0 0.00359328 -0 0.00359328)
(0.00359331 -0.00167092 -0 0.00359331 -0 0.00359331)
(0.00408898 -0.00190166 -0 0.00408898 -0 0.00408898)
(0.00408889 -0.00190162 -0 0.00408889 -0 0.00408889)
(0.00408869 -0.00190153 -0 0.00408869 -0 0.00408869)
(0.00408873 -0.00190155 -0 0.00408873 -0 0.00408873)
(0.00442559 -0.00205795 -0 0.0044256 -0 0.0044256)
(0.00442548 -0.0020579 -0 0.00442548 -0 0.00442548)
(0.00442529 -0.00205781 -0 0.00442529 -0 0.00442529)
(0.00442534 -0.00205783 -0 0.00442534 -0 0.00442534)
(0.00465761 -0.0021658 -0 0.00465761 -0 0.00465761)
(0.00465749 -0.00216574 -0 0.00465749 -0 0.00465749)
(0.00465731 -0.00216566 -0 0.00465731 -0 0.00465731)
(0.00465738 -0.00216569 -0 0.00465738 -0 0.00465738)
(0.00482013 -0.00224136 -0 0.00482012 -0 0.00482012)
(0.00482001 -0.00224131 -0 0.00482001 -0 0.00482001)
(0.00481985 -0.00224123 -0 0.00481985 -0 0.00481985)
(0.00481993 -0.00224127 -0 0.00481993 -0 0.00481993)
(0.00493543 -0.00229497 -0 0.00493542 -0 0.00493542)
(0.00493532 -0.00229492 -0 0.00493532 -0 0.00493532)
(0.00493518 -0.00229486 -0 0.00493518 -0 0.00493518)
(0.00493528 -0.00229491 -0 0.00493528 -0 0.00493528)
(0.00501779 -0.00233327 -0 0.00501778 -0 0.00501779)
(0.0050177 -0.00233323 -0 0.00501769 -0 0.0050177)
(0.00501758 -0.00233318 -0 0.00501759 -0 0.00501759)
(0.0050177 -0.00233323 -0 0.0050177 -0 0.0050177)
(0.00507656 -0.0023606 -0 0.00507654 -0 0.00507655)
(0.00507648 -0.00236056 -0 0.00507647 -0 0.00507647)
(0.00507638 -0.00236052 -0 0.0050764 -0 0.00507639)
(0.00507651 -0.00236058 -0 0.00507652 -0 0.00507651)
(0.00511791 -0.00237905 -0 0.0051179 -0 0.00511791)
(0.00511785 -0.00237901 -0 0.00511784 -0 0.00511784)
(0.00511778 -0.00237901 -0 0.00511779 -0 0.00511778)
(0.00511791 -0.00237917 -0 0.00511791 -0 0.00511791)
(0.00514604 -0.00239017 -0 0.00514603 -0 0.00514603)
(0.00514598 -0.00239016 -0 0.00514597 -0 0.00514598)
(0.00514593 -0.00239018 -0 0.00514594 -0 0.00514594)
(0.00514606 -0.00239032 -0 0.00514607 -0 0.00514607)
(0.00516381 -0.00239771 -0 0.0051638 -0 0.0051638)
(0.00516375 -0.00239773 -0 0.00516375 -0 0.00516375)
(0.00516372 -0.00239776 -0 0.00516374 -0 0.00516373)
(0.00516386 -0.00239791 -0 0.00516386 -0 0.00516386)
(0.00517322 -0.00240163 -0 0.00517321 -0 0.00517322)
(0.00517317 -0.00240165 -0 0.00517317 -0 0.00517317)
(0.00517316 -0.0024017 -0 0.00517317 -0 0.00517317)
(0.00517329 -0.00240185 -0 0.0051733 -0 0.00517329)
(0.0051758 -0.00240258 -0 0.0051758 -0 0.0051758)
(0.00517576 -0.00240262 -0 0.00517576 -0 0.00517576)
(0.00517576 -0.00240268 -0 0.00517576 -0 0.00517576)
(0.00517588 -0.00240284 -0 0.00517589 -0 0.00517588)
(0.00517271 -0.00240111 -0 0.00517271 -0 0.00517271)
(0.00517267 -0.00240115 -0 0.00517266 -0 0.00517267)
(0.00517267 -0.00240121 -0 0.00517268 -0 0.00517267)
(0.0051728 -0.00240137 -0 0.0051728 -0 0.0051728)
(0.00516485 -0.00239758 -0 0.00516485 -0 0.00516485)
(0.00516481 -0.00239762 -0 0.00516481 -0 0.00516481)
(0.00516482 -0.00239769 -0 0.00516482 -0 0.00516482)
(0.00516494 -0.00239785 -0 0.00516494 -0 0.00516494)
(0.00515294 -0.00239232 -0 0.00515294 -0 0.00515294)
(0.0051529 -0.00239236 -0 0.0051529 -0 0.0051529)
(0.00515291 -0.00239243 -0 0.00515291 -0 0.00515291)
(0.00515302 -0.00239258 -0 0.00515302 -0 0.00515302)
(0.00513755 -0.00238554 -0 0.00513755 -0 0.00513755)
(0.00513751 -0.00238558 -0 0.00513752 -0 0.00513752)
(0.00513753 -0.00238565 -0 0.00513753 -0 0.00513753)
(0.00513764 -0.00238579 -0 0.00513763 -0 0.00513763)
(0.00511916 -0.00237746 -0 0.00511917 -0 0.00511917)
(0.00511913 -0.00237749 -0 0.00511914 -0 0.00511913)
(0.00511915 -0.00237756 -0 0.00511915 -0 0.00511915)
(0.00511924 -0.00237768 -0 0.00511924 -0 0.00511924)
(0.00509816 -0.00236821 -0 0.00509817 -0 0.00509817)
(0.00509813 -0.00236823 -0 0.00509814 -0 0.00509813)
(0.00509815 -0.00236829 -0 0.00509815 -0 0.00509815)
(0.00509823 -0.0023684 -0 0.00509823 -0 0.00509823)
(0.00507487 -0.00235792 -0 0.00507488 -0 0.00507487)
(0.00507484 -0.00235794 -0 0.00507485 -0 0.00507484)
(0.00507486 -0.00235799 -0 0.00507485 -0 0.00507486)
(0.00507493 -0.00235807 -0 0.00507492 -0 0.00507493)
(0.00504955 -0.00234668 -0 0.00504956 -0 0.00504956)
(0.00504953 -0.00234669 -0 0.00504954 -0 0.00504954)
(0.00504955 -0.00234674 -0 0.00504954 -0 0.00504955)
(0.00504961 -0.0023468 -0 0.0050496 -0 0.0050496)
(0.00502245 -0.002335 -0 0.00502246 -0 0.00502246)
(0.00502244 -0.00233501 -0 0.00502244 -0 0.00502244)
(0.00502246 -0.00233506 -0 0.00502245 -0 0.00502245)
(0.0050225 -0.00233511 -0 0.00502249 -0 0.0050225)
(0.00499374 -0.00232209 -0 0.00499375 -0 0.00499375)
(0.00499373 -0.00232209 -0 0.00499374 -0 0.00499373)
(0.00499375 -0.00232209 -0 0.00499374 -0 0.00499375)
(0.00499378 -0.00232211 -0 0.00499377 -0 0.00499377)
(0.00496355 -0.00230805 -0 0.00496355 -0 0.00496355)
(0.00496354 -0.00230805 -0 0.00496355 -0 0.00496354)
(0.00496356 -0.00230805 -0 0.00496355 -0 0.00496355)
(0.00496357 -0.00230806 -0 0.00496356 -0 0.00496357)
(0.00493195 -0.00229336 -0 0.00493195 -0 0.00493195)
(0.00493195 -0.00229336 -0 0.00493195 -0 0.00493195)
(0.00493196 -0.00229336 -0 0.00493196 -0 0.00493196)
(0.00493196 -0.00229336 -0 0.00493195 -0 0.00493196)
(0.00489901 -0.00227804 -0 0.00489901 -0 0.00489901)
(0.00489902 -0.00227804 -0 0.00489902 -0 0.00489902)
(0.00489903 -0.00227805 -0 0.00489903 -0 0.00489903)
(0.00489901 -0.00227804 -0 0.00489901 -0 0.00489901)
(0.00486479 -0.00226213 -0 0.00486479 -0 0.00486479)
(0.0048648 -0.00226213 -0 0.00486481 -0 0.0048648)
(0.00486482 -0.00226214 -0 0.00486482 -0 0.00486482)
(0.00486478 -0.00226212 -0 0.00486478 -0 0.00486478)
(0.00482933 -0.00224564 -0 0.00482932 -0 0.00482933)
(0.00482935 -0.00224565 -0 0.00482935 -0 0.00482935)
(0.00482936 -0.00224565 -0 0.00482936 -0 0.00482936)
(0.00482931 -0.00224563 -0 0.00482931 -0 0.00482931)
(0.00479266 -0.00222859 -0 0.00479265 -0 0.00479266)
(0.00479268 -0.0022286 -0 0.00479269 -0 0.00479268)
(0.0047927 -0.00222861 -0 0.0047927 -0 0.0047927)
(0.00479264 -0.00222858 -0 0.00479264 -0 0.00479264)
(0.00475482 -0.00221099 -0 0.00475481 -0 0.00475481)
(0.00475485 -0.002211 -0 0.00475485 -0 0.00475485)
(0.00475486 -0.00221101 -0 0.00475487 -0 0.00475487)
(0.00475479 -0.00221098 -0 0.00475479 -0 0.00475479)
(0.00471583 -0.00219286 -0 0.00471582 -0 0.00471583)
(0.00471586 -0.00219288 -0 0.00471586 -0 0.00471586)
(0.00471588 -0.00219289 -0 0.00471589 -0 0.00471588)
(0.0047158 -0.00219285 -0 0.0047158 -0 0.0047158)
(0.00467572 -0.00217421 -0 0.00467571 -0 0.00467571)
(0.00467575 -0.00217423 -0 0.00467576 -0 0.00467576)
(0.00467578 -0.00217424 -0 0.00467578 -0 0.00467578)
(0.00467569 -0.00217419 -0 0.00467569 -0 0.00467569)
(0.0046345 -0.00215504 -0 0.0046345 -0 0.0046345)
(0.00463454 -0.00215506 -0 0.00463454 -0 0.00463454)
(0.00463457 -0.00215507 -0 0.00463457 -0 0.00463457)
(0.00463447 -0.00215503 -0 0.00463447 -0 0.00463447)
(0.00459219 -0.00213537 -0 0.00459219 -0 0.00459219)
(0.00459224 -0.00213539 -0 0.00459224 -0 0.00459224)
(0.00459227 -0.00213541 -0 0.00459227 -0 0.00459227)
(0.00459217 -0.00213536 -0 0.00459217 -0 0.00459217)
(0.00454882 -0.0021152 -0 0.00454881 -0 0.00454882)
(0.00454886 -0.00211522 -0 0.00454886 -0 0.00454886)
(0.0045489 -0.00211524 -0 0.0045489 -0 0.0045489)
(0.00454879 -0.00211519 -0 0.00454879 -0 0.00454879)
(0.00450438 -0.00209454 -0 0.00450438 -0 0.00450438)
(0.00450443 -0.00209456 -0 0.00450443 -0 0.00450443)
(0.00450446 -0.00209458 -0 0.00450447 -0 0.00450447)
(0.00450435 -0.00209452 -0 0.00450435 -0 0.00450435)
(0.00445891 -0.00207339 -0 0.00445891 -0 0.00445891)
(0.00445896 -0.00207341 -0 0.00445896 -0 0.00445896)
(0.004459 -0.00207343 -0 0.004459 -0 0.004459)
(0.00445888 -0.00207338 -0 0.00445889 -0 0.00445888)
(0.00441243 -0.00205178 -0 0.00441243 -0 0.00441243)
(0.00441248 -0.0020518 -0 0.00441247 -0 0.00441248)
(0.00441252 -0.00205182 -0 0.00441252 -0 0.00441252)
(0.00441241 -0.00205177 -0 0.00441241 -0 0.00441241)
(0.00436499 -0.00202972 -0 0.00436499 -0 0.00436499)
(0.00436503 -0.00202974 -0 0.00436503 -0 0.00436503)
(0.00436508 -0.00202976 -0 0.00436509 -0 0.00436508)
(0.00436497 -0.00202971 -0 0.00436497 -0 0.00436497)
(0.00431665 -0.00200724 -0 0.00431665 -0 0.00431665)
(0.00431669 -0.00200726 -0 0.00431669 -0 0.00431669)
(0.00431675 -0.00200729 -0 0.00431675 -0 0.00431675)
(0.00431663 -0.00200723 -0 0.00431663 -0 0.00431663)
(0.00426751 -0.00198439 -0 0.0042675 -0 0.00426751)
(0.00426755 -0.00198441 -0 0.00426755 -0 0.00426755)
(0.0042676 -0.00198444 -0 0.00426761 -0 0.00426761)
(0.00426748 -0.00198438 -0 0.00426749 -0 0.00426749)
(0.00421769 -0.00196122 -0 0.00421768 -0 0.00421769)
(0.00421773 -0.00196124 -0 0.00421773 -0 0.00421773)
(0.00421778 -0.00196127 -0 0.00421779 -0 0.00421779)
(0.00421767 -0.00196121 -0 0.00421766 -0 0.00421766)
(0.00416735 -0.00193782 -0 0.00416735 -0 0.00416735)
(0.00416738 -0.00193784 -0 0.00416739 -0 0.00416739)
(0.00416744 -0.00193786 -0 0.00416745 -0 0.00416744)
(0.00416733 -0.00193781 -0 0.00416732 -0 0.00416733)
(0.00411668 -0.00191426 -0 0.00411668 -0 0.00411668)
(0.0041167 -0.00191427 -0 0.00411672 -0 0.00411671)
(0.00411677 -0.0019143 -0 0.00411676 -0 0.00411676)
(0.00411667 -0.00191425 -0 0.00411665 -0 0.00411666)
(0.00406586 -0.00189063 -0 0.00406588 -0 0.00406587)
(0.00406588 -0.00189064 -0 0.00406591 -0 0.00406589)
(0.00406595 -0.00189066 -0 0.00406593 -0 0.00406594)
(0.00406586 -0.00189062 -0 0.00406584 -0 0.00406585)
(0.00401504 -0.00186701 -0 0.00401509 -0 0.00401507)
(0.00401507 -0.00186701 -0 0.0040151 -0 0.00401508)
(0.00401515 -0.00186703 -0 0.0040151 -0 0.00401513)
(0.00401508 -0.001867 -0 0.00401504 -0 0.00401506)
(0.00396431 -0.00184342 -0 0.00396438 -0 0.00396435)
(0.00396434 -0.00184343 -0 0.00396438 -0 0.00396436)
(0.00396443 -0.00184345 -0 0.00396436 -0 0.0039644)
(0.00396438 -0.00184343 -0 0.00396434 -0 0.00396436)
(0.00391357 -0.00181655 -0 0.00391364 -0 0.00391361)
(0.0039136 -0.00181646 -0 0.00391364 -0 0.00391362)
(0.00391369 -0.00181637 -0 0.00391362 -0 0.00391365)
(0.00391364 -0.00181581 -0 0.0039136 -0 0.00391362)
(0.00386269 -0.00178925 -0 0.00386274 -0 0.00386272)
(0.00386271 -0.00178913 -0 0.00386274 -0 0.00386273)
(0.00386279 -0.00178904 -0 0.00386273 -0 0.00386276)
(0.00386273 -0.00178871 -0 0.0038627 -0 0.00386272)
(0.00381162 -0.00176256 -0 0.00381165 -0 0.00381163)
(0.00381162 -0.00176241 -0 0.00381166 -0 0.00381164)
(0.00381169 -0.0017623 -0 0.00381165 -0 0.00381167)
(0.00381164 -0.00176193 -0 0.00381161 -0 0.00381162)
(0.00376035 -0.00173536 -0 0.00376037 -0 0.00376036)
(0.00376036 -0.00173524 -0 0.00376038 -0 0.00376037)
(0.00376041 -0.0017351 -0 0.00376039 -0 0.0037604)
(0.00376036 -0.0017347 -0 0.00376033 -0 0.00376034)
(0.0037089 -0.00170773 -0 0.00370891 -0 0.0037089)
(0.0037089 -0.00170761 -0 0.00370892 -0 0.00370891)
(0.00370894 -0.00170744 -0 0.00370894 -0 0.00370894)
(0.00370889 -0.00170702 -0 0.00370887 -0 0.00370888)
(0.00365727 -0.00167961 -0 0.00365727 -0 0.00365727)
(0.00365727 -0.0016795 -0 0.00365729 -0 0.00365728)
(0.0036573 -0.00167933 -0 0.00365731 -0 0.00365731)
(0.00365725 -0.00167889 -0 0.00365724 -0 0.00365725)
(0.00360546 -0.00165101 -0 0.00360545 -0 0.00360546)
(0.00360547 -0.00165092 -0 0.00360548 -0 0.00360547)
(0.00360549 -0.00165076 -0 0.0036055 -0 0.00360549)
(0.00360544 -0.0016503 -0 0.00360543 -0 0.00360543)
(0.00355348 -0.00162195 -0 0.00355346 -0 0.00355347)
(0.00355349 -0.00162187 -0 0.00355349 -0 0.00355349)
(0.0035535 -0.00162171 -0 0.00355352 -0 0.00355351)
(0.00355345 -0.00162125 -0 0.00355345 -0 0.00355345)
(0.00350133 -0.0015924 -0 0.00350131 -0 0.00350132)
(0.00350134 -0.00159234 -0 0.00350134 -0 0.00350134)
(0.00350135 -0.0015922 -0 0.00350137 -0 0.00350136)
(0.0035013 -0.00159174 -0 0.0035013 -0 0.0035013)
(0.00344902 -0.00156238 -0 0.00344899 -0 0.00344901)
(0.00344903 -0.00156234 -0 0.00344902 -0 0.00344903)
(0.00344904 -0.00156221 -0 0.00344907 -0 0.00344905)
(0.00344899 -0.00156176 -0 0.00344899 -0 0.00344899)
(0.00339656 -0.00153189 -0 0.00339653 -0 0.00339655)
(0.00339657 -0.00153185 -0 0.00339656 -0 0.00339657)
(0.00339658 -0.00153175 -0 0.00339661 -0 0.00339659)
(0.00339653 -0.00153131 -0 0.00339654 -0 0.00339653)
(0.00334396 -0.00150094 -0 0.00334394 -0 0.00334395)
(0.00334398 -0.00150089 -0 0.00334396 -0 0.00334397)
(0.00334399 -0.00150081 -0 0.00334401 -0 0.003344)
(0.00334393 -0.00150039 -0 0.00334395 -0 0.00334394)
(0.00329125 -0.00146949 -0 0.00329122 -0 0.00329124)
(0.00329126 -0.00146946 -0 0.00329124 -0 0.00329125)
(0.00329127 -0.0014694 -0 0.00329129 -0 0.00329128)
(0.00329122 -0.001469 -0 0.00329123 -0 0.00329122)
(0.00323843 -0.00143757 -0 0.00323841 -0 0.00323842)
(0.00323844 -0.00143755 -0 0.00323842 -0 0.00323843)
(0.00323845 -0.0014375 -0 0.00323848 -0 0.00323846)
(0.0032384 -0.00143713 -0 0.00323842 -0 0.00323841)
(0.00318554 -0.00140516 -0 0.00318552 -0 0.00318553)
(0.00318555 -0.00140515 -0 0.00318553 -0 0.00318554)
(0.00318556 -0.00140512 -0 0.00318558 -0 0.00318557)
(0.00318551 -0.00140478 -0 0.00318553 -0 0.00318552)
(0.00313259 -0.00137227 -0 0.00313258 -0 0.00313259)
(0.00313261 -0.00137227 -0 0.00313259 -0 0.0031326)
(0.00313262 -0.00137224 -0 0.00313264 -0 0.00313263)
(0.00313257 -0.00137194 -0 0.00313259 -0 0.00313258)
(0.00307964 -0.00133889 -0 0.00307962 -0 0.00307963)
(0.00307965 -0.00133889 -0 0.00307963 -0 0.00307964)
(0.00307966 -0.00133887 -0 0.00307967 -0 0.00307967)
(0.00307961 -0.0013386 -0 0.00307963 -0 0.00307962)
(0.0030267 -0.00130501 -0 0.00302668 -0 0.00302669)
(0.0030267 -0.00130501 -0 0.00302669 -0 0.0030267)
(0.00302672 -0.001305 -0 0.00302673 -0 0.00302672)
(0.00302668 -0.00130477 -0 0.00302669 -0 0.00302669)
(0.00297381 -0.00127062 -0 0.0029738 -0 0.00297381)
(0.00297382 -0.00127064 -0 0.00297381 -0 0.00297381)
(0.00297383 -0.00127063 -0 0.00297385 -0 0.00297384)
(0.0029738 -0.00127043 -0 0.00297381 -0 0.00297381)
(0.00292104 -0.00123573 -0 0.00292102 -0 0.00292103)
(0.00292104 -0.00123575 -0 0.00292103 -0 0.00292104)
(0.00292105 -0.00123575 -0 0.00292107 -0 0.00292106)
(0.00292102 -0.00123559 -0 0.00292104 -0 0.00292103)
(0.00286842 -0.00120032 -0 0.0028684 -0 0.00286841)
(0.00286842 -0.00120035 -0 0.00286841 -0 0.00286841)
(0.00286843 -0.00120035 -0 0.00286844 -0 0.00286844)
(0.0028684 -0.00120023 -0 0.00286841 -0 0.00286841)
(0.002816 -0.0011644 -0 0.00281599 -0 0.002816)
(0.00281601 -0.00116443 -0 0.00281599 -0 0.002816)
(0.00281601 -0.00116444 -0 0.00281603 -0 0.00281602)
(0.00281599 -0.00116434 -0 0.002816 -0 0.00281599)
(0.00276386 -0.00112795 -0 0.00276385 -0 0.00276385)
(0.00276387 -0.00112798 -0 0.00276385 -0 0.00276386)
(0.00276387 -0.00112799 -0 0.00276388 -0 0.00276388)
(0.00276385 -0.00112794 -0 0.00276386 -0 0.00276385)
(0.00271206 -0.00109097 -0 0.00271205 -0 0.00271205)
(0.00271206 -0.001091 -0 0.00271205 -0 0.00271205)
(0.00271206 -0.00109102 -0 0.00271208 -0 0.00271207)
(0.00271204 -0.00109099 -0 0.00271206 -0 0.00271205)
(0.00266067 -0.00105345 -0 0.00266066 -0 0.00266066)
(0.00266067 -0.00105348 -0 0.00266066 -0 0.00266066)
(0.00266067 -0.00105351 -0 0.00266068 -0 0.00266068)
(0.00266066 -0.00105351 -0 0.00266067 -0 0.00266066)
(0.00260977 -0.00101539 -0 0.00260976 -0 0.00260976)
(0.00260977 -0.00101542 -0 0.00260976 -0 0.00260977)
(0.00260977 -0.00101546 -0 0.00260978 -0 0.00260978)
(0.00260976 -0.00101548 -0 0.00260977 -0 0.00260977)
(0.00255945 -0.000976777 -0 0.00255945 -0 0.00255945)
(0.00255946 -0.000976826 -0 0.00255945 -0 0.00255945)
(0.00255946 -0.000976851 -0 0.00255946 -0 0.00255946)
(0.00255945 -0.000976899 -0 0.00255946 -0 0.00255946)
(0.00250982 -0.000937611 -0 0.00250981 -0 0.00250982)
(0.00250982 -0.00093766 -0 0.00250982 -0 0.00250982)
(0.00250982 -0.000937689 -0 0.00250983 -0 0.00250982)
(0.00250982 -0.000937761 -0 0.00250983 -0 0.00250983)
(0.00246097 -0.000897884 -0 0.00246096 -0 0.00246097)
(0.00246097 -0.000897935 -0 0.00246097 -0 0.00246097)
(0.00246097 -0.000897965 -0 0.00246097 -0 0.00246097)
(0.00246098 -0.000898057 -0 0.00246098 -0 0.00246098)
(0.00241302 -0.00085759 -0 0.00241301 -0 0.00241301)
(0.00241302 -0.000857624 -0 0.00241301 -0 0.00241302)
(0.00241302 -0.000857674 -0 0.00241302 -0 0.00241302)
(0.00241303 -0.000857783 -0 0.00241303 -0 0.00241303)
(0.00236608 -0.000816716 -0 0.00236608 -0 0.00236608)
(0.00236608 -0.000816775 -0 0.00236608 -0 0.00236608)
(0.00236608 -0.0008168 -0 0.00236608 -0 0.00236608)
(0.0023661 -0.000816929 -0 0.0023661 -0 0.0023661)
(0.0023203 -0.000775263 -0 0.00232029 -0 0.0023203)
(0.0023203 -0.000775314 -0 0.00232029 -0 0.0023203)
(0.0023203 -0.000775347 -0 0.0023203 -0 0.0023203)
(0.00232031 -0.00077549 -0 0.00232032 -0 0.00232032)
(0.0022758 -0.000733221 -0 0.0022758 -0 0.0022758)
(0.0022758 -0.000733268 -0 0.0022758 -0 0.0022758)
(0.0022758 -0.000733306 -0 0.0022758 -0 0.0022758)
(0.00227582 -0.000733457 -0 0.00227582 -0 0.00227582)
(0.00223274 -0.000690581 -0 0.00223273 -0 0.00223274)
(0.00223274 -0.000690624 -0 0.00223274 -0 0.00223274)
(0.00223274 -0.000690668 -0 0.00223274 -0 0.00223274)
(0.00223276 -0.000690823 -0 0.00223276 -0 0.00223276)
(0.00219127 -0.000647338 -0 0.00219126 -0 0.00219126)
(0.00219126 -0.000647374 -0 0.00219126 -0 0.00219126)
(0.00219127 -0.000647426 -0 0.00219127 -0 0.00219127)
(0.00219129 -0.00064758 -0 0.00219129 -0 0.00219129)
(0.00215155 -0.000603484 -0 0.00215155 -0 0.00215155)
(0.00215155 -0.000603492 -0 0.00215155 -0 0.00215155)
(0.00215155 -0.00060357 -0 0.00215155 -0 0.00215155)
(0.00215157 -0.000603723 -0 0.00215157 -0 0.00215157)
(0.00211375 -0.000559005 -0 0.00211375 -0 0.00211375)
(0.00211375 -0.000559016 -0 0.00211375 -0 0.00211375)
(0.00211375 -0.000559094 -0 0.00211375 -0 0.00211375)
(0.00211378 -0.000559237 -0 0.00211378 -0 0.00211378)
(0.00207806 -0.000513899 -0 0.00207806 -0 0.00207806)
(0.00207806 -0.000513902 -0 0.00207806 -0 0.00207806)
(0.00207806 -0.00051398 -0 0.00207806 -0 0.00207806)
(0.00207809 -0.000514122 -0 0.00207809 -0 0.00207809)
(0.00204465 -0.000468154 -0 0.00204465 -0 0.00204465)
(0.00204465 -0.000468165 -0 0.00204465 -0 0.00204465)
(0.00204465 -0.000468218 -0 0.00204465 -0 0.00204465)
(0.00204468 -0.000468365 -0 0.00204468 -0 0.00204468)
(0.00201371 -0.000421761 -0 0.00201371 -0 0.00201371)
(0.00201371 -0.000421756 -0 0.00201371 -0 0.00201371)
(0.00201371 -0.000421832 -0 0.00201371 -0 0.00201371)
(0.00201375 -0.000421953 -0 0.00201374 -0 0.00201374)
(0.00198543 -0.000374712 -0 0.00198544 -0 0.00198543)
(0.00198543 -0.000374709 -0 0.00198544 -0 0.00198543)
(0.00198544 -0.000374768 -0 0.00198543 -0 0.00198544)
(0.00198547 -0.000374886 -0 0.00198546 -0 0.00198547)
(0.00196001 -0.000326996 -0 0.00196002 -0 0.00196002)
(0.00196001 -0.000326991 -0 0.00196002 -0 0.00196001)
(0.00196002 -0.00032704 -0 0.00196001 -0 0.00196002)
(0.00196005 -0.000327152 -0 0.00196004 -0 0.00196005)
(0.00193764 -0.000278604 -0 0.00193765 -0 0.00193765)
(0.00193764 -0.000278615 -0 0.00193765 -0 0.00193765)
(0.00193765 -0.000278639 -0 0.00193765 -0 0.00193765)
(0.00193768 -0.000278739 -0 0.00193768 -0 0.00193768)
(0.00191853 -0.000229529 -0 0.00191853 -0 0.00191853)
(0.00191852 -0.000229535 -0 0.00191853 -0 0.00191853)
(0.00191853 -0.000229555 -0 0.00191853 -0 0.00191853)
(0.00191857 -0.000229641 -0 0.00191856 -0 0.00191856)
(0.00190285 -0.000179759 -0 0.00190285 -0 0.00190285)
(0.00190285 -0.000179765 -0 0.00190286 -0 0.00190285)
(0.00190286 -0.000179779 -0 0.00190285 -0 0.00190285)
(0.00190289 -0.000179847 -0 0.00190288 -0 0.00190288)
(0.00189081 -0.000129285 -0 0.00189082 -0 0.00189081)
(0.00189081 -0.000129286 -0 0.00189082 -0 0.00189081)
(0.00189082 -0.000129299 -0 0.00189081 -0 0.00189081)
(0.00189085 -0.00012935 -0 0.00189084 -0 0.00189084)
(0.0018826 -7.80954e-05 -0 0.00188261 -0 0.0018826)
(0.0018826 -7.81042e-05 -0 0.00188261 -0 0.0018826)
(0.00188261 -7.81035e-05 -0 0.0018826 -0 0.0018826)
(0.00188264 -7.81388e-05 -0 0.00188263 -0 0.00188263)
(0.00187841 -2.61628e-05 -0 0.00187841 -0 0.00187841)
(0.0018784 -2.61653e-05 -0 0.00187841 -0 0.00187841)
(0.00187841 -2.61662e-05 -0 0.00187841 -0 0.00187841)
(0.00187844 -2.61774e-05 -0 0.00187843 -0 0.00187844)
)
;

boundaryField
{
    inlet
    {
        type            cyclic;
    }
    outlet
    {
        type            cyclic;
    }
    fixedWalls-bottom
    {
        type            kqRWallFunction;
        value           nonuniform List<symmTensor> 4((3.47199e-06 -0 -0 3.47199e-06 -0 3.47199e-06) (3.47213e-06 -0 -0 3.47213e-06 -0 3.47213e-06) (3.47188e-06 -0 -0 3.47188e-06 -0 3.47188e-06) (3.47188e-06 -0 -0 3.47188e-06 -0 3.47188e-06));
    }
    fixedWalls-top
    {
        type            symmetry;
    }
    frontAndBack
    {
        type            empty;
    }
}


// ************************************************************************* //
