/*--------------------------------*- C++ -*----------------------------------*\
  =========                 |
  \\      /  F ield         | OpenFOAM: The Open Source CFD Toolbox
   \\    /   O peration     | Website:  https://openfoam.org
    \\  /    A nd           | Version:  10
     \\/     M anipulation  |
\*---------------------------------------------------------------------------*/
FoamFile
{
    format      ascii;
    class       volVectorField;
    location    "5057";
    object      U;
}
// * * * * * * * * * * * * * * * * * * * * * * * * * * * * * * * * * * * * * //

dimensions      [0 1 -1 0 0 0 0];

internalField   nonuniform List<vector> 
400
(
(0.0604728 -5.47817e-10 0)
(0.0604732 3.36634e-12 0)
(0.0604726 5.49582e-10 0)
(0.0604722 -3.40451e-12 0)
(0.181414 -9.67062e-09 0)
(0.181415 1.68948e-09 0)
(0.181414 9.67455e-09 0)
(0.181412 -1.68962e-09 0)
(0.298634 -2.86712e-08 0)
(0.298636 6.59282e-09 0)
(0.298633 2.86748e-08 0)
(0.298631 -6.59304e-09 0)
(0.398798 -5.33448e-08 0)
(0.398799 1.50743e-08 0)
(0.398796 5.33478e-08 0)
(0.398794 -1.50745e-08 0)
(0.475253 -7.73437e-08 0)
(0.475254 2.48068e-08 0)
(0.475251 7.73467e-08 0)
(0.47525 -2.48071e-08 0)
(0.533425 -9.68939e-08 0)
(0.533425 3.45098e-08 0)
(0.533423 9.68968e-08 0)
(0.533422 -3.45101e-08 0)
(0.579228 -1.10642e-07 0)
(0.579229 4.25342e-08 0)
(0.579227 1.10645e-07 0)
(0.579226 -4.25346e-08 0)
(0.616349 -1.18312e-07 0)
(0.616349 4.91174e-08 0)
(0.616348 1.18315e-07 0)
(0.616348 -4.91178e-08 0)
(0.647235 -1.20338e-07 0)
(0.647234 5.53716e-08 0)
(0.647234 1.2034e-07 0)
(0.647235 -5.5372e-08 0)
(0.673525 -1.17102e-07 0)
(0.673524 6.2506e-08 0)
(0.673524 1.17105e-07 0)
(0.673526 -6.25064e-08 0)
(0.69634 -1.08475e-07 0)
(0.696339 7.12774e-08 0)
(0.696338 1.08477e-07 0)
(0.696341 -7.12778e-08 0)
(0.716463 -9.39114e-08 0)
(0.716461 8.15395e-08 0)
(0.716461 9.3914e-08 0)
(0.716464 -8.15399e-08 0)
(0.734457 -7.39073e-08 0)
(0.734455 9.22391e-08 0)
(0.734455 7.39098e-08 0)
(0.734459 -9.22397e-08 0)
(0.750743 -5.23929e-08 0)
(0.750741 1.02242e-07 0)
(0.750741 5.23953e-08 0)
(0.750745 -1.02243e-07 0)
(0.76564 -3.09502e-08 0)
(0.765638 1.10823e-07 0)
(0.765638 3.09526e-08 0)
(0.765641 -1.10824e-07 0)
(0.779379 -1.32372e-08 0)
(0.779378 1.17729e-07 0)
(0.779378 1.32395e-08 0)
(0.77938 -1.1773e-07 0)
(0.792132 7.10935e-10 0)
(0.792131 1.2309e-07 0)
(0.792131 -7.08575e-10 0)
(0.792133 -1.23091e-07 0)
(0.804036 1.11259e-08 0)
(0.804035 1.26885e-07 0)
(0.804035 -1.11236e-08 0)
(0.804037 -1.26885e-07 0)
(0.815199 1.81259e-08 0)
(0.815199 1.28914e-07 0)
(0.815199 -1.81236e-08 0)
(0.815199 -1.28914e-07 0)
(0.825711 2.19194e-08 0)
(0.825711 1.29114e-07 0)
(0.825711 -2.19171e-08 0)
(0.825711 -1.29115e-07 0)
(0.835646 2.27828e-08 0)
(0.835646 1.27462e-07 0)
(0.835646 -2.27806e-08 0)
(0.835646 -1.27463e-07 0)
(0.845064 2.10324e-08 0)
(0.845064 1.24014e-07 0)
(0.845065 -2.10302e-08 0)
(0.845064 -1.24014e-07 0)
(0.854018 1.70027e-08 0)
(0.854018 1.18935e-07 0)
(0.854019 -1.70005e-08 0)
(0.854018 -1.18936e-07 0)
(0.862552 1.1053e-08 0)
(0.862552 1.1255e-07 0)
(0.862553 -1.10508e-08 0)
(0.862551 -1.12551e-07 0)
(0.870702 3.61838e-09 0)
(0.870702 1.05422e-07 0)
(0.870703 -3.61623e-09 0)
(0.870701 -1.05422e-07 0)
(0.878502 -4.82877e-09 0)
(0.878502 9.82632e-08 0)
(0.878503 4.8309e-09 0)
(0.878501 -9.82638e-08 0)
(0.885979 -1.36708e-08 0)
(0.88598 9.17186e-08 0)
(0.88598 1.36728e-08 0)
(0.885978 -9.17192e-08 0)
(0.893161 -2.11756e-08 0)
(0.893162 8.55188e-08 0)
(0.893162 2.11777e-08 0)
(0.893161 -8.55194e-08 0)
(0.900076 -2.66345e-08 0)
(0.900076 7.98812e-08 0)
(0.900077 2.66365e-08 0)
(0.900076 -7.98818e-08 0)
(0.906746 -2.91149e-08 0)
(0.906746 7.44565e-08 0)
(0.906746 2.91169e-08 0)
(0.906746 -7.44571e-08 0)
(0.91319 -2.91318e-08 0)
(0.91319 6.96051e-08 0)
(0.91319 2.91337e-08 0)
(0.91319 -6.96057e-08 0)
(0.919424 -2.76544e-08 0)
(0.919424 6.5671e-08 0)
(0.919424 2.76564e-08 0)
(0.919424 -6.56716e-08 0)
(0.925462 -2.55179e-08 0)
(0.925462 6.27152e-08 0)
(0.925462 2.55198e-08 0)
(0.925462 -6.27158e-08 0)
(0.931316 -2.32524e-08 0)
(0.931316 6.05845e-08 0)
(0.931316 2.32544e-08 0)
(0.931316 -6.05851e-08 0)
(0.936998 -2.11083e-08 0)
(0.936998 5.90476e-08 0)
(0.936998 2.11102e-08 0)
(0.936998 -5.90482e-08 0)
(0.942516 -1.91443e-08 0)
(0.942516 5.78878e-08 0)
(0.942516 1.91462e-08 0)
(0.942516 -5.78885e-08 0)
(0.947881 -1.73244e-08 0)
(0.947881 5.69447e-08 0)
(0.947881 1.73262e-08 0)
(0.947881 -5.69454e-08 0)
(0.953101 -1.55978e-08 0)
(0.953101 5.61224e-08 0)
(0.953101 1.55996e-08 0)
(0.953101 -5.61231e-08 0)
(0.958183 -1.3949e-08 0)
(0.958183 5.53883e-08 0)
(0.958183 1.39508e-08 0)
(0.958183 -5.5389e-08 0)
(0.963135 -1.24112e-08 0)
(0.963135 5.47759e-08 0)
(0.963135 1.2413e-08 0)
(0.963135 -5.47765e-08 0)
(0.967962 -1.10402e-08 0)
(0.967962 5.43931e-08 0)
(0.967962 1.10419e-08 0)
(0.967962 -5.43938e-08 0)
(0.972671 -9.85087e-09 0)
(0.972671 5.44222e-08 0)
(0.972671 9.8526e-09 0)
(0.972671 -5.44228e-08 0)
(0.977266 -8.73276e-09 0)
(0.977266 5.50811e-08 0)
(0.977266 8.73446e-09 0)
(0.977266 -5.50818e-08 0)
(0.98175 -7.38032e-09 0)
(0.98175 5.65177e-08 0)
(0.98175 7.38198e-09 0)
(0.98175 -5.65183e-08 0)
(0.986124 -5.3071e-09 0)
(0.986124 5.86243e-08 0)
(0.986124 5.30874e-09 0)
(0.986124 -5.86249e-08 0)
(0.990389 -2.03177e-09 0)
(0.990389 6.08131e-08 0)
(0.990389 2.03342e-09 0)
(0.990389 -6.08138e-08 0)
(0.994544 2.49695e-09 0)
(0.994543 6.18627e-08 0)
(0.994544 -2.49529e-09 0)
(0.994544 -6.18636e-08 0)
(0.998586 7.25083e-09 0)
(0.998586 6.00192e-08 0)
(0.998586 -7.24927e-09 0)
(0.998586 -6.002e-08 0)
(1.00251 9.43401e-09 0)
(1.00251 5.35384e-08 0)
(1.00251 -9.43267e-09 0)
(1.00251 -5.35389e-08 0)
(1.00632 4.29396e-09 0)
(1.00632 4.16688e-08 0)
(1.00632 -4.29246e-09 0)
(1.00632 -4.16686e-08 0)
(1.01002 -1.32946e-08 0)
(1.01002 2.55223e-08 0)
(1.01002 1.32968e-08 0)
(1.01002 -2.55223e-08 0)
(1.0136 -4.38494e-08 0)
(1.0136 7.56244e-09 0)
(1.0136 4.38508e-08 0)
(1.0136 -7.56506e-09 0)
(1.01709 -7.68789e-08 0)
(1.0171 -1.10839e-08 0)
(1.0171 7.68799e-08 0)
(1.01709 1.10823e-08 0)
(1.02051 -1.08794e-07 0)
(1.02051 -2.81799e-08 0)
(1.02051 1.08795e-07 0)
(1.02051 2.81804e-08 0)
(1.02385 -1.29358e-07 0)
(1.02385 -4.41159e-08 0)
(1.02385 1.2936e-07 0)
(1.02385 4.41156e-08 0)
(1.02713 -1.41224e-07 0)
(1.02713 -5.78938e-08 0)
(1.02713 1.41226e-07 0)
(1.02713 5.78931e-08 0)
(1.03034 -1.466e-07 0)
(1.03034 -6.9263e-08 0)
(1.03034 1.46602e-07 0)
(1.03034 6.92624e-08 0)
(1.03349 -1.46691e-07 0)
(1.03349 -7.77589e-08 0)
(1.03349 1.46692e-07 0)
(1.03349 7.77584e-08 0)
(1.03658 -1.42337e-07 0)
(1.03658 -8.35012e-08 0)
(1.03658 1.42338e-07 0)
(1.03658 8.35007e-08 0)
(1.03961 -1.34577e-07 0)
(1.03961 -8.6435e-08 0)
(1.03961 1.34578e-07 0)
(1.03961 8.64345e-08 0)
(1.04258 -1.24399e-07 0)
(1.04258 -8.65039e-08 0)
(1.04258 1.244e-07 0)
(1.04258 8.65034e-08 0)
(1.0455 -1.12778e-07 0)
(1.0455 -8.38809e-08 0)
(1.0455 1.12779e-07 0)
(1.0455 8.38804e-08 0)
(1.04837 -1.00591e-07 0)
(1.04837 -7.89492e-08 0)
(1.04837 1.00593e-07 0)
(1.04837 7.89486e-08 0)
(1.05119 -8.85487e-08 0)
(1.05119 -7.24126e-08 0)
(1.05119 8.85499e-08 0)
(1.05119 7.24121e-08 0)
(1.05396 -7.7109e-08 0)
(1.05396 -6.47117e-08 0)
(1.05396 7.71101e-08 0)
(1.05396 6.47112e-08 0)
(1.05667 -6.64679e-08 0)
(1.05667 -5.64411e-08 0)
(1.05667 6.64689e-08 0)
(1.05667 5.64406e-08 0)
(1.05934 -5.6611e-08 0)
(1.05934 -4.77769e-08 0)
(1.05934 5.66121e-08 0)
(1.05934 4.77764e-08 0)
(1.06197 -4.74913e-08 0)
(1.06197 -3.88733e-08 0)
(1.06197 4.74923e-08 0)
(1.06197 3.88729e-08 0)
(1.06454 -3.90516e-08 0)
(1.06454 -2.99114e-08 0)
(1.06454 3.90526e-08 0)
(1.06454 2.9911e-08 0)
(1.06707 -3.12391e-08 0)
(1.06707 -2.10663e-08 0)
(1.06707 3.124e-08 0)
(1.06707 2.10659e-08 0)
(1.06955 -2.40002e-08 0)
(1.06955 -1.24709e-08 0)
(1.06955 2.40012e-08 0)
(1.06955 1.24704e-08 0)
(1.07198 -1.72679e-08 0)
(1.07198 -4.18283e-09 0)
(1.07198 1.72688e-08 0)
(1.07198 4.18242e-09 0)
(1.07436 -1.09592e-08 0)
(1.07436 3.80293e-09 0)
(1.07436 1.09601e-08 0)
(1.07436 -3.80333e-09 0)
(1.0767 -4.9813e-09 0)
(1.0767 1.15155e-08 0)
(1.0767 4.98217e-09 0)
(1.0767 -1.15159e-08 0)
(1.07898 7.30999e-10 0)
(1.07898 1.89083e-08 0)
(1.07898 -7.30157e-10 0)
(1.07898 -1.89087e-08 0)
(1.08122 6.11192e-09 0)
(1.08122 2.57244e-08 0)
(1.08122 -6.11112e-09 0)
(1.08122 -2.57247e-08 0)
(1.0834 1.09277e-08 0)
(1.0834 3.18318e-08 0)
(1.0834 -1.09269e-08 0)
(1.0834 -3.18322e-08 0)
(1.08553 1.50577e-08 0)
(1.08553 3.70988e-08 0)
(1.08553 -1.5057e-08 0)
(1.08553 -3.70991e-08 0)
(1.0876 1.86624e-08 0)
(1.0876 4.16595e-08 0)
(1.0876 -1.86617e-08 0)
(1.0876 -4.16598e-08 0)
(1.08962 2.1847e-08 0)
(1.08962 4.56901e-08 0)
(1.08962 -2.18464e-08 0)
(1.08962 -4.56904e-08 0)
(1.09157 2.48009e-08 0)
(1.09157 4.92701e-08 0)
(1.09157 -2.48003e-08 0)
(1.09157 -4.92704e-08 0)
(1.09347 2.70788e-08 0)
(1.09347 5.23957e-08 0)
(1.09347 -2.70782e-08 0)
(1.09347 -5.23959e-08 0)
(1.09529 2.90061e-08 0)
(1.09529 5.50433e-08 0)
(1.09529 -2.90055e-08 0)
(1.09529 -5.50435e-08 0)
(1.09706 3.03688e-08 0)
(1.09706 5.72621e-08 0)
(1.09706 -3.03683e-08 0)
(1.09706 -5.72623e-08 0)
(1.09875 3.18292e-08 0)
(1.09875 5.90874e-08 0)
(1.09875 -3.18288e-08 0)
(1.09875 -5.90876e-08 0)
(1.10037 3.34675e-08 0)
(1.10037 6.05018e-08 0)
(1.10037 -3.34671e-08 0)
(1.10037 -6.0502e-08 0)
(1.10191 3.509e-08 0)
(1.10191 6.14042e-08 0)
(1.10191 -3.50896e-08 0)
(1.10191 -6.14044e-08 0)
(1.10337 3.59147e-08 0)
(1.10337 6.15621e-08 0)
(1.10337 -3.59143e-08 0)
(1.10337 -6.15622e-08 0)
(1.10475 3.57955e-08 0)
(1.10475 6.08951e-08 0)
(1.10475 -3.57952e-08 0)
(1.10475 -6.08952e-08 0)
(1.10603 3.4272e-08 0)
(1.10603 5.90915e-08 0)
(1.10604 -3.42717e-08 0)
(1.10603 -5.90917e-08 0)
(1.10723 3.19999e-08 0)
(1.10723 5.60073e-08 0)
(1.10723 -3.19996e-08 0)
(1.10723 -5.60075e-08 0)
(1.10833 2.89751e-08 0)
(1.10833 5.20301e-08 0)
(1.10833 -2.89749e-08 0)
(1.10833 -5.20301e-08 0)
(1.10932 2.54547e-08 0)
(1.10932 4.70266e-08 0)
(1.10932 -2.54545e-08 0)
(1.10932 -4.70266e-08 0)
(1.11021 2.12367e-08 0)
(1.11021 4.14915e-08 0)
(1.11021 -2.12366e-08 0)
(1.11021 -4.14917e-08 0)
(1.11099 1.70589e-08 0)
(1.11099 3.55397e-08 0)
(1.11099 -1.70587e-08 0)
(1.11099 -3.55399e-08 0)
(1.11165 1.31496e-08 0)
(1.11165 2.92477e-08 0)
(1.11165 -1.31495e-08 0)
(1.11165 -2.92477e-08 0)
(1.1122 9.95769e-09 0)
(1.1122 2.28073e-08 0)
(1.1122 -9.95761e-09 0)
(1.1122 -2.28073e-08 0)
(1.11261 7.05202e-09 0)
(1.11261 1.6295e-08 0)
(1.11261 -7.05198e-09 0)
(1.11261 -1.62951e-08 0)
(1.11289 4.35888e-09 0)
(1.11289 9.74753e-09 0)
(1.11289 -4.35883e-09 0)
(1.11289 -9.74763e-09 0)
(1.11304 1.47997e-09 0)
(1.11304 3.2467e-09 0)
(1.11304 -1.47993e-09 0)
(1.11304 -3.24669e-09 0)
)
;

boundaryField
{
    inlet
    {
        type            cyclic;
    }
    outlet
    {
        type            cyclic;
    }
    fixedWalls-bottom
    {
        type            noSlip;
    }
    fixedWalls-top
    {
        type            symmetry;
    }
    frontAndBack
    {
        type            empty;
    }
}


// ************************************************************************* //
