/*--------------------------------*- C++ -*----------------------------------*\
  =========                 |
  \\      /  F ield         | OpenFOAM: The Open Source CFD Toolbox
   \\    /   O peration     | Website:  https://openfoam.org
    \\  /    A nd           | Version:  10
     \\/     M anipulation  |
\*---------------------------------------------------------------------------*/
FoamFile
{
    format      ascii;
    class       volScalarField;
    location    "10000";
    object      k;
}
// * * * * * * * * * * * * * * * * * * * * * * * * * * * * * * * * * * * * * //

dimensions      [0 2 -2 0 0 0 0];

internalField   nonuniform List<scalar> 
400
(
2.22045e-16
2.22045e-16
2.22045e-16
2.22045e-16
5.89364e-16
5.89219e-16
5.88981e-16
5.88708e-16
4.03542e-15
4.03441e-15
4.03277e-15
4.03088e-15
1.44225e-14
1.44188e-14
1.44128e-14
1.44058e-14
3.69655e-14
3.69559e-14
3.69401e-14
3.69221e-14
7.78244e-14
7.78039e-14
7.77704e-14
7.7732e-14
1.4406e-13
1.44022e-13
1.43959e-13
1.43888e-13
2.43642e-13
2.43576e-13
2.4347e-13
2.43348e-13
3.85476e-13
3.85372e-13
3.85203e-13
3.8501e-13
5.79447e-13
5.7929e-13
5.79035e-13
5.78744e-13
8.36464e-13
8.36237e-13
8.35868e-13
8.35446e-13
1.16851e-12
1.16819e-12
1.16767e-12
1.16708e-12
1.5887e-12
1.58826e-12
1.58755e-12
1.58675e-12
2.1113e-12
2.11071e-12
2.10978e-12
2.10871e-12
2.75183e-12
2.75106e-12
2.74984e-12
2.74845e-12
3.52707e-12
3.52608e-12
3.5245e-12
3.52272e-12
4.45508e-12
4.45382e-12
4.45183e-12
4.44957e-12
5.55527e-12
5.55368e-12
5.5512e-12
5.54838e-12
6.84835e-12
6.84637e-12
6.84331e-12
6.83983e-12
8.35635e-12
8.35392e-12
8.35018e-12
8.34593e-12
1.01026e-11
1.00996e-11
1.00951e-11
1.00899e-11
1.21115e-11
1.21079e-11
1.21025e-11
1.20963e-11
1.44087e-11
1.44044e-11
1.4398e-11
1.43906e-11
1.70206e-11
1.70155e-11
1.70079e-11
1.69992e-11
1.99744e-11
1.99685e-11
1.99596e-11
1.99493e-11
2.32978e-11
2.32909e-11
2.32806e-11
2.32685e-11
2.70186e-11
2.70107e-11
2.69987e-11
2.69847e-11
3.11645e-11
3.11554e-11
3.11416e-11
3.11254e-11
3.57624e-11
3.5752e-11
3.57363e-11
3.57176e-11
4.08383e-11
4.08266e-11
4.08088e-11
4.07873e-11
4.64166e-11
4.64037e-11
4.63836e-11
4.6359e-11
5.25196e-11
5.25054e-11
5.24829e-11
5.24548e-11
5.91668e-11
5.91514e-11
5.91263e-11
5.90945e-11
6.63746e-11
6.63579e-11
6.63303e-11
6.62943e-11
7.4155e-11
7.41374e-11
7.4107e-11
7.40664e-11
8.25156e-11
8.24972e-11
8.2464e-11
8.24185e-11
9.14585e-11
9.14396e-11
9.14037e-11
9.13527e-11
1.00979e-10
1.0096e-10
1.00922e-10
1.00865e-10
1.11067e-10
1.11048e-10
1.11007e-10
1.10944e-10
1.217e-10
1.21682e-10
1.21639e-10
1.21569e-10
1.32852e-10
1.32835e-10
1.3279e-10
1.32713e-10
1.4448e-10
1.44465e-10
1.44419e-10
1.44335e-10
1.56533e-10
1.56521e-10
1.56473e-10
1.56383e-10
1.68942e-10
1.68934e-10
1.68886e-10
1.68789e-10
1.81624e-10
1.8162e-10
1.81574e-10
1.81471e-10
1.94473e-10
1.94475e-10
1.94431e-10
1.94322e-10
2.07427e-10
2.07435e-10
2.07394e-10
2.07281e-10
2.20427e-10
2.20441e-10
2.20403e-10
2.20286e-10
2.3341e-10
2.33429e-10
2.33395e-10
2.33275e-10
2.46312e-10
2.46336e-10
2.46306e-10
2.46183e-10
2.59067e-10
2.59097e-10
2.59071e-10
2.58946e-10
2.71612e-10
2.71645e-10
2.71624e-10
2.71498e-10
2.8388e-10
2.83916e-10
2.83901e-10
2.83775e-10
2.95807e-10
2.95847e-10
2.95838e-10
2.95712e-10
3.07332e-10
3.07373e-10
3.0737e-10
3.07246e-10
3.18391e-10
3.18433e-10
3.18438e-10
3.18315e-10
3.28927e-10
3.28969e-10
3.2898e-10
3.2886e-10
3.38882e-10
3.38924e-10
3.38942e-10
3.38824e-10
3.48202e-10
3.48243e-10
3.48267e-10
3.48152e-10
3.56836e-10
3.56875e-10
3.56905e-10
3.56794e-10
3.64735e-10
3.64773e-10
3.64808e-10
3.64701e-10
3.71856e-10
3.71892e-10
3.71932e-10
3.71828e-10
3.78159e-10
3.78192e-10
3.78237e-10
3.78137e-10
3.83608e-10
3.83638e-10
3.83686e-10
3.83591e-10
3.88171e-10
3.88198e-10
3.88249e-10
3.88158e-10
3.91822e-10
3.91847e-10
3.91899e-10
3.91812e-10
3.94539e-10
3.94562e-10
3.94614e-10
3.94532e-10
3.96308e-10
3.96328e-10
3.96381e-10
3.96302e-10
3.97118e-10
3.97136e-10
3.97188e-10
3.97113e-10
3.96965e-10
3.96981e-10
3.97032e-10
3.96962e-10
3.95853e-10
3.95867e-10
3.95916e-10
3.9585e-10
3.93791e-10
3.93803e-10
3.9385e-10
3.93788e-10
3.90795e-10
3.90806e-10
3.9085e-10
3.90792e-10
3.86889e-10
3.86898e-10
3.8694e-10
3.86885e-10
3.82102e-10
3.8211e-10
3.82149e-10
3.82098e-10
3.76474e-10
3.76481e-10
3.76516e-10
3.7647e-10
3.70048e-10
3.70054e-10
3.70086e-10
3.70045e-10
3.62877e-10
3.6288e-10
3.62909e-10
3.62874e-10
3.55016e-10
3.55019e-10
3.55044e-10
3.55016e-10
3.46531e-10
3.46533e-10
3.46554e-10
3.46535e-10
3.37491e-10
3.37491e-10
3.37509e-10
3.37501e-10
3.2797e-10
3.27969e-10
3.27983e-10
3.27988e-10
3.18047e-10
3.18045e-10
3.18056e-10
3.18072e-10
3.07804e-10
3.07801e-10
3.07811e-10
3.07836e-10
2.97324e-10
2.97322e-10
2.9733e-10
2.97363e-10
2.86707e-10
2.86705e-10
2.86712e-10
2.86752e-10
2.76116e-10
2.76117e-10
2.76122e-10
2.76169e-10
2.65702e-10
2.65703e-10
2.65708e-10
2.6576e-10
2.55596e-10
2.55596e-10
2.55601e-10
2.55659e-10
2.45913e-10
2.45913e-10
2.45918e-10
2.4598e-10
2.36758e-10
2.36758e-10
2.36764e-10
2.3683e-10
2.28224e-10
2.28224e-10
2.28229e-10
2.28299e-10
2.20393e-10
2.20393e-10
2.20398e-10
2.20471e-10
2.1334e-10
2.13338e-10
2.13344e-10
2.13419e-10
2.0713e-10
2.07128e-10
2.07133e-10
2.07211e-10
2.01824e-10
2.01821e-10
2.01828e-10
2.01908e-10
1.9748e-10
1.97476e-10
1.97483e-10
1.97565e-10
1.9415e-10
1.94145e-10
1.94152e-10
1.94235e-10
1.91884e-10
1.91879e-10
1.91886e-10
1.9197e-10
1.90731e-10
1.90726e-10
1.90734e-10
1.90818e-10
)
;

boundaryField
{
    inlet
    {
        type            cyclic;
    }
    outlet
    {
        type            cyclic;
    }
    fixedWalls-bottom
    {
        type            kqRWallFunction;
        value           uniform 2.22045e-16;
    }
    fixedWalls-top
    {
        type            symmetry;
    }
    frontAndBack
    {
        type            empty;
    }
}


// ************************************************************************* //
