/*--------------------------------*- C++ -*----------------------------------*\
  =========                 |
  \\      /  F ield         | OpenFOAM: The Open Source CFD Toolbox
   \\    /   O peration     | Website:  https://openfoam.org
    \\  /    A nd           | Version:  10
     \\/     M anipulation  |
\*---------------------------------------------------------------------------*/
FoamFile
{
    format      ascii;
    class       volScalarField;
    location    "10000";
    object      nut;
}
// * * * * * * * * * * * * * * * * * * * * * * * * * * * * * * * * * * * * * //

dimensions      [0 2 -1 0 0 0 0];

internalField   nonuniform List<scalar> 
400
(
7.38528e-22
7.38528e-22
7.38528e-22
7.38528e-22
1.19285e-20
1.19256e-20
1.19208e-20
1.19153e-20
2.41052e-19
2.40996e-19
2.40903e-19
2.40796e-19
1.81733e-18
1.81688e-18
1.81615e-18
1.81531e-18
8.19249e-18
8.19042e-18
8.18704e-18
8.18315e-18
2.71013e-17
2.70943e-17
2.70829e-17
2.70699e-17
7.3076e-17
7.3057e-17
7.3026e-17
7.29904e-17
1.70565e-16
1.7052e-16
1.70447e-16
1.70363e-16
3.57735e-16
3.5764e-16
3.57486e-16
3.57309e-16
6.91065e-16
6.9088e-16
6.90582e-16
6.90237e-16
1.25085e-15
1.25052e-15
1.24997e-15
1.24935e-15
2.14779e-15
2.14721e-15
2.14627e-15
2.14519e-15
3.53081e-15
3.52984e-15
3.52829e-15
3.52651e-15
5.59646e-15
5.59489e-15
5.59242e-15
5.5896e-15
8.6001e-15
8.59764e-15
8.59382e-15
8.58949e-15
1.28695e-14
1.28657e-14
1.286e-14
1.28535e-14
1.88213e-14
1.88156e-14
1.88071e-14
1.87976e-14
2.69811e-14
2.69725e-14
2.69604e-14
2.69468e-14
3.80084e-14
3.79958e-14
3.79785e-14
3.79595e-14
5.27276e-14
5.2709e-14
5.26849e-14
5.26586e-14
7.21662e-14
7.21389e-14
7.21055e-14
7.20698e-14
9.7603e-14
9.75632e-14
9.75175e-14
9.74695e-14
1.30629e-13
1.30571e-13
1.30509e-13
1.30445e-13
1.73221e-13
1.73137e-13
1.73053e-13
1.72969e-13
2.27841e-13
2.27719e-13
2.27606e-13
2.27498e-13
2.97553e-13
2.97376e-13
2.97225e-13
2.97085e-13
3.86173e-13
3.85917e-13
3.85714e-13
3.85536e-13
4.98461e-13
4.98092e-13
4.97821e-13
4.97595e-13
6.4036e-13
6.39828e-13
6.39466e-13
6.39182e-13
8.1929e-13
8.1853e-13
8.18044e-13
8.17688e-13
1.04453e-12
1.04345e-12
1.0428e-12
1.04235e-12
1.3277e-12
1.32616e-12
1.32528e-12
1.32473e-12
1.68331e-12
1.68115e-12
1.67994e-12
1.67926e-12
2.12955e-12
2.12652e-12
2.12488e-12
2.12403e-12
2.68919e-12
2.68497e-12
2.68272e-12
2.68165e-12
3.39067e-12
3.38484e-12
3.38174e-12
3.38037e-12
4.26955e-12
4.26156e-12
4.25727e-12
4.25547e-12
5.37019e-12
5.35934e-12
5.35336e-12
5.3509e-12
6.74774e-12
6.73318e-12
6.72483e-12
6.72131e-12
8.47059e-12
8.45135e-12
8.43961e-12
8.43431e-12
1.06231e-11
1.05981e-11
1.05816e-11
1.05735e-11
1.33087e-11
1.32767e-11
1.32536e-11
1.32411e-11
1.66531e-11
1.66127e-11
1.65808e-11
1.65612e-11
2.08074e-11
2.07571e-11
2.07133e-11
2.0683e-11
2.59505e-11
2.58888e-11
2.58293e-11
2.57828e-11
2.83677e-11
2.8368e-11
2.83616e-11
2.83458e-11
3.06347e-11
3.06359e-11
3.06298e-11
3.06131e-11
3.29716e-11
3.29736e-11
3.29679e-11
3.29504e-11
3.5373e-11
3.53759e-11
3.53707e-11
3.53525e-11
3.78331e-11
3.78368e-11
3.78322e-11
3.78133e-11
4.03456e-11
4.03502e-11
4.03462e-11
4.03268e-11
4.29043e-11
4.29095e-11
4.29063e-11
4.28864e-11
4.55022e-11
4.55081e-11
4.55057e-11
4.54855e-11
4.81325e-11
4.81389e-11
4.81374e-11
4.8117e-11
5.07882e-11
5.07949e-11
5.07945e-11
5.0774e-11
5.3462e-11
5.3469e-11
5.34697e-11
5.34491e-11
5.61467e-11
5.61538e-11
5.61557e-11
5.61352e-11
5.88351e-11
5.88423e-11
5.88454e-11
5.88249e-11
6.15199e-11
6.15271e-11
6.15314e-11
6.15111e-11
6.41941e-11
6.42011e-11
6.42066e-11
6.41865e-11
6.68505e-11
6.68573e-11
6.68639e-11
6.68441e-11
6.94822e-11
6.94888e-11
6.94964e-11
6.9477e-11
7.20826e-11
7.2089e-11
7.20975e-11
7.20784e-11
7.46454e-11
7.46513e-11
7.46607e-11
7.46421e-11
7.71644e-11
7.717e-11
7.718e-11
7.71619e-11
7.96342e-11
7.96393e-11
7.96499e-11
7.96322e-11
8.20495e-11
8.20542e-11
8.20652e-11
8.2048e-11
8.44061e-11
8.44103e-11
8.44215e-11
8.44048e-11
8.67001e-11
8.67039e-11
8.67153e-11
8.66991e-11
8.89289e-11
8.89324e-11
8.89437e-11
8.8928e-11
9.10908e-11
9.1094e-11
9.11052e-11
9.10901e-11
9.31855e-11
9.31885e-11
9.31995e-11
9.31849e-11
9.52143e-11
9.52169e-11
9.52278e-11
9.52137e-11
9.71802e-11
9.71825e-11
9.7193e-11
9.71794e-11
9.90882e-11
9.90902e-11
9.91003e-11
9.90871e-11
1.00946e-10
1.00948e-10
1.00957e-10
1.00945e-10
1.02764e-10
1.02765e-10
1.02774e-10
1.02763e-10
1.04556e-10
1.04557e-10
1.04566e-10
1.04556e-10
1.06341e-10
1.06342e-10
1.06349e-10
1.06341e-10
1.08141e-10
1.08141e-10
1.08148e-10
1.08142e-10
1.09984e-10
1.09984e-10
1.0999e-10
1.09988e-10
1.11908e-10
1.11908e-10
1.11913e-10
1.11914e-10
1.13957e-10
1.13956e-10
1.13961e-10
1.13966e-10
1.16188e-10
1.16187e-10
1.16191e-10
1.162e-10
1.1671e-10
1.16705e-10
1.16724e-10
1.16792e-10
1.06626e-10
1.06624e-10
1.0665e-10
1.06755e-10
9.7603e-11
9.76029e-11
9.76319e-11
9.77663e-11
8.9575e-11
8.95775e-11
8.96055e-11
8.97625e-11
8.24701e-11
8.24725e-11
8.25035e-11
8.26762e-11
7.62188e-11
7.62214e-11
7.62548e-11
7.64388e-11
7.07539e-11
7.07567e-11
7.07921e-11
7.09843e-11
6.60129e-11
6.60158e-11
6.60527e-11
6.62507e-11
6.19388e-11
6.19417e-11
6.19798e-11
6.21819e-11
5.84813e-11
5.84843e-11
5.85233e-11
5.87285e-11
5.55975e-11
5.56003e-11
5.56403e-11
5.5848e-11
5.32514e-11
5.32539e-11
5.32955e-11
5.35052e-11
5.14149e-11
5.14169e-11
5.1461e-11
5.16724e-11
5.00672e-11
5.00687e-11
5.01167e-11
5.03295e-11
4.91952e-11
4.91967e-11
4.92499e-11
4.94638e-11
4.8793e-11
4.8798e-11
4.8855e-11
4.90701e-11
)
;

boundaryField
{
    inlet
    {
        type            cyclic;
    }
    outlet
    {
        type            cyclic;
    }
    fixedWalls-bottom
    {
        type            nutkWallFunction;
        Cmu             0.09;
        kappa           0.41;
        E               9.8;
        value           uniform 0;
    }
    fixedWalls-top
    {
        type            symmetry;
    }
    frontAndBack
    {
        type            empty;
    }
}


// ************************************************************************* //
