/*--------------------------------*- C++ -*----------------------------------*\
  =========                 |
  \\      /  F ield         | OpenFOAM: The Open Source CFD Toolbox
   \\    /   O peration     | Website:  https://openfoam.org
    \\  /    A nd           | Version:  10
     \\/     M anipulation  |
\*---------------------------------------------------------------------------*/
FoamFile
{
    format      ascii;
    class       volScalarField;
    location    "10000";
    object      omega;
}
// * * * * * * * * * * * * * * * * * * * * * * * * * * * * * * * * * * * * * //

dimensions      [0 0 -1 0 0 0 0];

internalField   nonuniform List<scalar> 
400
(
300658
300658
300658
300658
49408
49407.9
49407.8
49407.6
16740.9
16740.6
16740.2
16739.8
7936.1
7936.01
7935.88
7935.73
4512.12
4512.08
4512.03
4511.96
2871.61
2871.6
2871.57
2871.53
1971.37
1971.36
1971.34
1971.32
1428.44
1428.43
1428.42
1428.41
1077.54
1077.54
1077.53
1077.53
838.484
838.481
838.475
838.471
668.716
668.714
668.71
668.707
544.053
544.052
544.049
544.047
449.952
449.952
449.95
449.949
377.256
377.257
377.256
377.256
319.977
319.979
319.979
319.978
274.064
274.068
274.068
274.067
236.705
236.709
236.71
236.709
205.895
205.901
205.902
205.901
180.18
180.188
180.189
180.188
158.481
158.491
158.493
158.491
139.99
140.002
140.004
140.002
124.089
124.103
124.106
124.104
110.303
110.319
110.322
110.319
98.2593
98.2779
98.2817
98.2787
87.6681
87.6891
87.6934
87.6901
78.2981
78.3215
78.3265
78.3228
69.9651
69.9909
69.9966
69.9926
62.5214
62.5494
62.5558
62.5516
55.8473
55.8775
55.8846
55.8802
49.8459
49.878
49.8859
49.8813
44.4376
44.4714
44.48
44.4753
39.5569
39.592
39.6014
39.5967
35.1491
35.1851
35.1954
35.1908
31.1683
31.2049
31.216
31.2115
27.5752
27.612
27.6238
27.6197
24.3361
24.3726
24.3851
24.3815
21.4211
21.4568
21.47
21.4671
18.8037
18.8382
18.852
18.8501
16.4598
16.4926
16.507
16.5063
14.3674
14.398
14.4129
14.4137
12.5059
12.5339
12.5491
12.5515
10.8561
10.8811
10.8965
10.9006
9.3996
9.42176
9.43702
9.44272
8.11932
8.1386
8.15351
8.16077
6.99886
7.01539
7.02976
7.03843
6.02276
6.03672
6.0504
6.06027
5.17642
5.18805
5.20091
5.21175
4.44614
4.4557
4.46764
4.47922
3.81913
3.82689
3.83784
3.84993
3.28352
3.28975
3.29968
3.31206
2.82841
2.83337
2.84226
2.85474
2.44382
2.44777
2.45562
2.46802
2.12071
2.12388
2.13071
2.14288
1.85096
1.85353
1.85945
1.87122
1.62735
1.62944
1.63459
1.64583
1.44348
1.44519
1.44969
1.46033
1.29377
1.29518
1.29911
1.30913
1.17335
1.17452
1.17797
1.18739
1.07806
1.07904
1.08208
1.09093
1.00433
1.00516
1.00785
1.01618
0.949182
0.949888
0.952285
0.96014
0.910109
0.910715
0.912866
0.920306
0.885063
0.885588
0.887533
0.894615
0.872386
0.872845
0.87462
0.881397
0.870764
0.87117
0.872804
0.879328
0.879184
0.879548
0.881066
0.887383
0.896892
0.897223
0.898647
0.904795
0.923354
0.923658
0.925006
0.931018
0.958216
0.958499
0.959787
0.965686
1.00127
1.00154
1.00278
1.00858
1.05242
1.05268
1.05387
1.05958
1.11165
1.11189
1.11305
1.11865
1.17896
1.17919
1.18032
1.1858
1.25438
1.25461
1.2557
1.26102
1.33791
1.33813
1.33918
1.3443
1.42947
1.42969
1.43069
1.43555
1.52894
1.52914
1.53008
1.53462
1.63603
1.63623
1.6371
1.64123
1.75037
1.75055
1.75134
1.75497
1.87142
1.87159
1.87226
1.87531
1.99849
1.99864
1.99918
2.00155
2.13072
2.13085
2.13123
2.13282
2.26711
2.26722
2.2674
2.26812
2.4065
2.40657
2.40652
2.40631
2.54756
2.54763
2.5473
2.54609
2.68889
2.68893
2.68836
2.68607
2.82897
2.82898
2.8282
2.82478
2.96625
2.96618
2.96531
2.96071
3.09925
3.09916
3.09806
3.09229
3.22641
3.2263
3.22495
3.218
3.34622
3.34609
3.34449
3.33637
3.45727
3.45711
3.45526
3.44598
3.55824
3.55806
3.55597
3.54558
3.64799
3.64779
3.64545
3.634
3.72552
3.7253
3.72272
3.71028
3.79003
3.7898
3.78695
3.77361
3.84091
3.84069
3.83752
3.82341
3.87778
3.87758
3.874
3.85927
3.90046
3.90024
3.89617
3.88103
3.90899
3.90848
3.90408
3.88869
)
;

boundaryField
{
    inlet
    {
        type            cyclic;
    }
    outlet
    {
        type            cyclic;
    }
    fixedWalls-bottom
    {
        beta1           0.075;
        blended         0;
        type            omegaWallFunction;
        value           uniform 300658;
    }
    fixedWalls-top
    {
        type            symmetry;
    }
    frontAndBack
    {
        type            empty;
    }
}


// ************************************************************************* //
