/*--------------------------------*- C++ -*----------------------------------*\
  =========                 |
  \\      /  F ield         | OpenFOAM: The Open Source CFD Toolbox
   \\    /   O peration     | Website:  https://openfoam.org
    \\  /    A nd           | Version:  10
     \\/     M anipulation  |
\*---------------------------------------------------------------------------*/
FoamFile
{
    format      ascii;
    class       surfaceScalarField;
    location    "10000";
    object      phi;
}
// * * * * * * * * * * * * * * * * * * * * * * * * * * * * * * * * * * * * * //

dimensions      [0 3 -1 0 0 0 0];

internalField   nonuniform List<scalar> 
696
(
6.38553e-05
-2.57668e-17
6.38553e-05
4.35646e-20
6.38553e-05
3.26262e-18
-1.12675e-19
0.000194579
-3.52181e-17
0.000194579
7.80032e-19
0.000194579
1.35598e-17
-9.66318e-19
0.000330205
-5.30659e-17
0.000330205
2.58011e-18
0.000330205
3.14189e-17
-3.04937e-18
0.000470863
-7.81993e-17
0.000470863
6.09433e-18
0.000470863
5.73521e-17
-6.59332e-18
0.000616686
-1.13242e-16
0.000616686
1.16659e-17
0.000616686
9.22343e-17
-1.24042e-17
0.000767805
-1.56664e-16
0.000767805
1.97981e-17
0.000767805
1.36407e-16
-2.06024e-17
0.000924359
-2.11117e-16
0.000924359
3.07191e-17
0.000924359
1.90804e-16
-3.17334e-17
0.00108648
-2.75422e-16
0.00108648
4.49623e-17
0.00108648
2.55952e-16
-4.63187e-17
0.00125432
-3.52775e-16
0.00125432
6.37291e-17
0.00125432
3.33414e-16
-6.53001e-17
0.00142802
-4.42274e-16
0.00142802
8.67386e-17
0.00142802
4.23637e-16
-8.87604e-17
0.00160772
-5.45956e-16
0.00160772
1.15892e-16
0.00160772
5.26841e-16
-1.17653e-16
0.00179356
-6.63627e-16
0.00179356
1.50649e-16
0.00179356
6.45209e-16
-1.52957e-16
0.00198571
-7.9693e-16
0.00198571
1.93067e-16
0.00198571
7.78214e-16
-1.95513e-16
0.00218431
-9.46161e-16
0.00218431
2.42386e-16
0.00218431
9.28124e-16
-2.45182e-16
0.00238952
-1.11362e-15
0.00238952
2.99971e-16
0.00238952
1.09547e-15
-3.03346e-16
0.00260149
-1.30084e-15
0.00260149
3.67229e-16
0.00260149
1.2828e-15
-3.70288e-16
0.00282038
-1.5091e-15
0.00282038
4.43268e-16
0.00282038
1.49088e-15
-4.46274e-16
0.00304635
-1.74167e-15
0.00304635
5.30304e-16
0.00304635
1.72326e-15
-5.32584e-16
0.00327957
-1.99874e-15
0.00327957
6.28103e-16
0.00327957
1.98042e-15
-6.30362e-16
0.00352021
-2.28147e-15
0.00352021
7.39299e-16
0.00352021
2.26348e-15
-7.42013e-16
0.00376842
-2.59238e-15
0.00376842
8.62976e-16
0.00376842
2.5747e-15
-8.66207e-16
0.00402437
-2.93276e-15
0.00402437
1.0043e-15
0.00402437
2.91601e-15
-1.00708e-15
0.00428824
-3.30421e-15
0.00428824
1.15999e-15
0.00428824
3.28644e-15
-1.16328e-15
0.0045602
-3.70676e-15
0.0045602
1.33245e-15
0.0045602
3.68902e-15
-1.33565e-15
0.00484042
-4.1476e-15
0.00484042
1.52534e-15
0.00484042
4.12952e-15
-1.52865e-15
0.00512907
-4.62335e-15
0.00512907
1.73982e-15
0.00512907
4.60552e-15
-1.74242e-15
0.00542634
-5.14084e-15
0.00542634
1.9759e-15
0.00542634
5.12249e-15
-1.97846e-15
0.00573239
-5.69712e-15
0.00573239
2.23583e-15
0.00573239
5.67872e-15
-2.23949e-15
0.0060474
-6.29702e-15
0.0060474
2.5218e-15
0.0060474
6.27943e-15
-2.52551e-15
0.00637156
-6.94018e-15
0.00637156
2.83555e-15
0.00637156
6.92283e-15
-2.84013e-15
0.00670504
-7.62804e-15
0.00670504
3.17439e-15
0.00670504
7.61215e-15
-3.18073e-15
0.00704801
-8.36305e-15
0.00704801
3.54328e-15
0.00704801
8.34952e-15
-3.55017e-15
0.00740067
-9.14671e-15
0.00740067
3.94262e-15
0.00740067
9.13057e-15
-3.94753e-15
0.00776319
-9.97591e-15
0.00776319
4.36629e-15
0.00776319
9.95694e-15
-4.36808e-15
0.00813574
-1.08441e-14
0.00813574
4.81078e-15
0.00813574
1.08248e-14
-4.81141e-15
0.0085185
-1.1748e-14
0.0085185
5.27183e-15
0.0085185
1.17294e-14
-5.27268e-15
0.00891166
-1.26778e-14
0.00891166
5.73133e-15
0.00891166
1.26589e-14
-5.73348e-15
0.00931539
-1.36356e-14
0.00931539
6.1877e-15
0.00931539
1.36138e-14
-6.18603e-15
0.00972986
-1.46005e-14
0.00972986
6.60533e-15
0.00972986
1.45798e-14
-6.60456e-15
0.0101553
-1.55594e-14
0.0101553
6.95326e-15
0.0101553
1.55379e-14
-6.95283e-15
0.0105917
-1.64666e-14
0.0105917
7.1807e-15
0.0105917
1.6443e-14
-7.17646e-15
0.0110395
-1.72694e-14
0.0110395
7.20858e-15
0.0110395
1.72467e-14
-7.20521e-15
0.0114986
-1.78678e-14
0.0114986
6.93463e-15
0.0114986
1.78447e-14
-6.93107e-15
0.0119693
-1.81271e-14
0.0119693
6.21681e-15
0.0119693
1.81035e-14
-6.21253e-15
0.0124518
-1.78259e-14
0.0124518
4.85086e-15
0.0124518
1.78047e-14
-4.84811e-15
0.0129462
-1.71711e-14
0.0129462
3.16658e-15
0.0129462
1.71505e-14
-3.16576e-15
0.0134526
-1.64931e-14
0.0134526
1.61739e-15
0.0134526
1.64723e-14
-1.61676e-15
0.0139711
-1.57997e-14
0.0139711
2.02041e-16
0.0139711
1.57812e-14
-2.03325e-16
0.014502
-1.50891e-14
0.014502
-1.09111e-15
0.014502
1.50731e-14
1.08759e-15
0.0150454
-1.43541e-14
0.0150454
-2.26034e-15
0.0150454
1.43382e-14
2.25612e-15
0.0156013
-1.35963e-14
0.0156013
-3.32087e-15
0.0156013
1.35798e-14
3.31792e-15
0.0161699
-1.28174e-14
0.0161699
-4.27615e-15
0.0161699
1.28029e-14
4.27365e-15
0.0167513
-1.20139e-14
0.0167513
-5.13087e-15
0.0167513
1.19996e-14
5.12954e-15
0.0173456
-1.11914e-14
0.0173456
-5.88841e-15
0.0173456
1.11732e-14
5.89195e-15
0.0179529
-1.03534e-14
0.0179529
-6.55511e-15
0.0179529
1.03341e-14
6.55924e-15
0.0185732
-9.51252e-15
0.0185732
-7.12426e-15
0.0185732
9.49653e-15
7.12339e-15
0.0192066
-8.67562e-15
0.0192066
-7.60374e-15
0.0192066
8.66133e-15
7.60273e-15
0.0198532
-7.87267e-15
0.0198532
-7.98495e-15
0.0198532
7.85252e-15
7.98815e-15
0.020513
-7.09047e-15
0.020513
-8.27998e-15
0.020513
7.06826e-15
8.28955e-15
0.0211859
-6.35158e-15
0.0211859
-8.48904e-15
0.0211859
6.32754e-15
8.49877e-15
0.0218721
-5.65769e-15
0.0218721
-8.60842e-15
0.0218721
5.6358e-15
8.6156e-15
0.0225715
-5.03479e-15
0.0225715
-8.64673e-15
0.0225715
5.01465e-15
8.65526e-15
0.0232841
-4.47499e-15
0.0232841
-8.61824e-15
0.0232841
4.45977e-15
8.61782e-15
0.0240098
-4.00183e-15
0.0240098
-8.51186e-15
0.0240098
3.98515e-15
8.51222e-15
0.0247485
-3.60546e-15
0.0247485
-8.32926e-15
0.0247485
3.58859e-15
8.33374e-15
0.0255001
-3.29033e-15
0.0255001
-8.08594e-15
0.0255001
3.27374e-15
8.08757e-15
0.0262645
-3.04821e-15
0.0262645
-7.79972e-15
0.0262645
3.03497e-15
7.79654e-15
0.0270416
-2.89056e-15
0.0270416
-7.44991e-15
0.0270416
2.88488e-15
7.4417e-15
0.0278311
-2.79003e-15
0.0278311
-7.04985e-15
0.0278311
2.78607e-15
7.03791e-15
0.0286329
-2.74427e-15
0.0286329
-6.58867e-15
0.0286329
2.7408e-15
6.58088e-15
0.0294467
-2.75589e-15
0.0294467
-6.06833e-15
0.0294467
2.74601e-15
6.06758e-15
0.0302723
-2.80005e-15
0.0302723
-5.4939e-15
0.0302723
2.78729e-15
5.49699e-15
0.0311092
-2.8692e-15
0.0311092
-4.86604e-15
0.0311092
2.85984e-15
4.86653e-15
0.0319573
-2.94391e-15
0.0319573
-4.16824e-15
0.0319573
2.93918e-15
4.15815e-15
0.0328159
-2.99206e-15
0.0328159
-3.40466e-15
0.0328159
2.98148e-15
3.40487e-15
0.0336849
-2.99479e-15
0.0336849
-2.56888e-15
0.0336849
2.99688e-15
2.55879e-15
0.0345635
-2.92133e-15
0.0345635
-1.628e-15
0.0345635
2.91596e-15
1.62008e-15
0.0354513
-2.73876e-15
0.0354513
-6.15084e-16
0.0354513
2.72968e-15
6.14608e-16
0.0363478
-2.39347e-15
0.0363478
4.63382e-16
0.0363478
2.39348e-15
-4.67695e-16
0.0372522
-1.86335e-15
0.0372522
1.62568e-15
0.0372522
1.8551e-15
-1.62748e-15
0.0381639
-1.06766e-15
0.0381639
2.83539e-15
0.0381639
1.05553e-15
-2.82926e-15
0.0390821
2.59951e-17
0.0390821
4.07281e-15
0.0390821
-3.12538e-17
-4.06326e-15
0.0400059
1.47467e-15
0.0400059
5.28329e-15
0.0400059
-1.47776e-15
-5.28393e-15
0.0409345
3.35118e-15
0.0409345
6.44713e-15
0.0409345
-3.34832e-15
-6.44698e-15
0.0418669
5.43305e-15
0.0418669
7.5236e-15
0.0418669
-5.44375e-15
-7.51352e-15
0.042802
7.32468e-15
0.042802
8.50329e-15
0.042802
-7.33767e-15
-8.48934e-15
0.0437387
8.87585e-15
0.0437387
9.36813e-15
0.0437387
-8.88306e-15
-9.3543e-15
0.0446757
9.99378e-15
0.0446757
1.00544e-14
0.0446757
-9.98764e-15
-1.00517e-14
0.0456118
1.06495e-14
0.0456118
1.05337e-14
0.0456118
-1.06536e-14
-1.05245e-14
0.0465456
1.08868e-14
0.0465456
1.07705e-14
0.0465456
-1.08873e-14
-1.07567e-14
0.0474754
1.07266e-14
0.0474754
1.07305e-14
0.0474754
-1.07328e-14
-1.07176e-14
0.0483998
1.02298e-14
0.0483998
1.04098e-14
0.0483998
-1.02433e-14
-1.03939e-14
0.0493169
9.45282e-15
0.0493169
9.84388e-15
0.0493169
-9.47045e-15
-9.81469e-15
0.0502249
8.4655e-15
0.0502249
9.00492e-15
0.0502249
-8.47095e-15
-8.98761e-15
0.0511218
7.30732e-15
0.0511218
7.9277e-15
0.0511218
-7.31078e-15
-7.92061e-15
0.0520055
6.01094e-15
0.0520055
6.6507e-15
0.0520055
-6.01419e-15
-6.64259e-15
0.0528737
4.62545e-15
0.0528737
5.18144e-15
0.0528737
-4.63407e-15
-5.17219e-15
0.0537241
3.13968e-15
0.0537241
3.55608e-15
0.0537241
-3.15484e-15
-3.53999e-15
0.054554
1.58664e-15
0.054554
1.81687e-15
0.054554
-1.60192e-15
-1.79839e-15
0.0553607
0.0553607
0.0553607
)
;

boundaryField
{
    inlet
    {
        type            cyclic;
        value           nonuniform List<scalar> 
100
(
-0.0553607
-0.054554
-0.0537241
-0.0528737
-0.0520055
-0.0511218
-0.0502249
-0.0493169
-0.0483998
-0.0474754
-0.0465456
-0.0456118
-0.0446757
-0.0437387
-0.042802
-0.0418669
-0.0409345
-0.0400059
-0.0390821
-0.0381639
-0.0372522
-0.0363478
-0.0354513
-0.0345635
-0.0336849
-0.0328159
-0.0319573
-0.0311092
-0.0302723
-0.0294467
-0.0286329
-0.0278311
-0.0270416
-0.0262645
-0.0255001
-0.0247485
-0.0240098
-0.0232841
-0.0225715
-0.0218721
-0.0211859
-0.020513
-0.0198532
-0.0192066
-0.0185732
-0.0179529
-0.0173456
-0.0167513
-0.0161699
-0.0156013
-0.0150454
-0.014502
-0.0139711
-0.0134526
-0.0129462
-0.0124518
-0.0119693
-0.0114986
-0.0110395
-0.0105917
-0.0101553
-0.00972986
-0.00931539
-0.00891166
-0.0085185
-0.00813574
-0.00776319
-0.00740067
-0.00704801
-0.00670504
-0.00637156
-0.0060474
-0.00573239
-0.00542634
-0.00512907
-0.00484042
-0.0045602
-0.00428824
-0.00402437
-0.00376842
-0.00352021
-0.00327957
-0.00304635
-0.00282038
-0.00260149
-0.00238952
-0.00218431
-0.00198571
-0.00179356
-0.00160772
-0.00142802
-0.00125432
-0.00108648
-0.000924359
-0.000767805
-0.000616686
-0.000470863
-0.000330205
-0.000194579
-6.38553e-05
)
;
    }
    outlet
    {
        type            cyclic;
        value           nonuniform List<scalar> 
100
(
0.0553607
0.054554
0.0537241
0.0528737
0.0520055
0.0511218
0.0502249
0.0493169
0.0483998
0.0474754
0.0465456
0.0456118
0.0446757
0.0437387
0.042802
0.0418669
0.0409345
0.0400059
0.0390821
0.0381639
0.0372522
0.0363478
0.0354513
0.0345635
0.0336849
0.0328159
0.0319573
0.0311092
0.0302723
0.0294467
0.0286329
0.0278311
0.0270416
0.0262645
0.0255001
0.0247485
0.0240098
0.0232841
0.0225715
0.0218721
0.0211859
0.020513
0.0198532
0.0192066
0.0185732
0.0179529
0.0173456
0.0167513
0.0161699
0.0156013
0.0150454
0.014502
0.0139711
0.0134526
0.0129462
0.0124518
0.0119693
0.0114986
0.0110395
0.0105917
0.0101553
0.00972986
0.00931539
0.00891166
0.0085185
0.00813574
0.00776319
0.00740067
0.00704801
0.00670504
0.00637156
0.0060474
0.00573239
0.00542634
0.00512907
0.00484042
0.0045602
0.00428824
0.00402437
0.00376842
0.00352021
0.00327957
0.00304635
0.00282038
0.00260149
0.00238952
0.00218431
0.00198571
0.00179356
0.00160772
0.00142802
0.00125432
0.00108648
0.000924359
0.000767805
0.000616686
0.000470863
0.000330205
0.000194579
6.38553e-05
)
;
    }
    fixedWalls-bottom
    {
        type            calculated;
        value           uniform 0;
    }
    fixedWalls-top
    {
        type            symmetry;
        value           uniform 0;
    }
    frontAndBack
    {
        type            empty;
        value           nonuniform List<scalar> 0();
    }
}


// ************************************************************************* //
