/*--------------------------------*- C++ -*----------------------------------*\
  =========                 |
  \\      /  F ield         | OpenFOAM: The Open Source CFD Toolbox
   \\    /   O peration     | Website:  https://openfoam.org
    \\  /    A nd           | Version:  10
     \\/     M anipulation  |
\*---------------------------------------------------------------------------*/
FoamFile
{
    format      ascii;
    class       volVectorField;
    location    "10000";
    object      U;
}
// * * * * * * * * * * * * * * * * * * * * * * * * * * * * * * * * * * * * * //

dimensions      [0 1 -1 0 0 0 0];

internalField   nonuniform List<vector> 
400
(
(0.00692012 -5.44238e-18 0)
(0.00692012 -5.00291e-20 0)
(0.00692012 3.65249e-19 0)
(0.00692012 5.20107e-20 0)
(0.0207936 -3.59579e-17 0)
(0.0207936 1.36108e-19 0)
(0.0207936 6.90485e-18 0)
(0.0207936 -2.85763e-19 0)
(0.0347966 -4.26005e-17 0)
(0.0347966 1.34562e-18 0)
(0.0347966 2.05896e-17 0)
(0.0347966 -1.66964e-18 0)
(0.0489291 -6.39181e-17 0)
(0.0489291 3.89265e-18 0)
(0.0489291 4.23226e-17 0)
(0.0489291 -4.38327e-18 0)
(0.0631909 -9.37247e-17 0)
(0.0631909 8.35557e-18 0)
(0.0631909 7.26296e-17 0)
(0.0631909 -8.95753e-18 0)
(0.0775819 -1.32706e-16 0)
(0.0775819 1.50914e-17 0)
(0.0775819 1.12023e-16 0)
(0.0775819 -1.58669e-17 0)
(0.0921019 -1.81449e-16 0)
(0.0921019 2.44693e-17 0)
(0.0921019 1.6115e-16 0)
(0.0921019 -2.53748e-17 0)
(0.106751 -2.4065e-16 0)
(0.106751 3.69668e-17 0)
(0.106751 2.20746e-16 0)
(0.106751 -3.81445e-17 0)
(0.121527 -3.11259e-16 0)
(0.121527 5.32861e-17 0)
(0.121527 2.91843e-16 0)
(0.121527 -5.4743e-17 0)
(0.136432 -3.94559e-16 0)
(0.136432 7.4056e-17 0)
(0.136432 3.75566e-16 0)
(0.136432 -7.58617e-17 0)
(0.151465 -4.9095e-16 0)
(0.151465 9.99515e-17 0)
(0.151465 4.72101e-16 0)
(0.151465 -1.01869e-16 0)
(0.166624 -6.0151e-16 0)
(0.166624 1.31746e-16 0)
(0.166624 5.82681e-16 0)
(0.166624 -1.33721e-16 0)
(0.181909 -7.26774e-16 0)
(0.181909 1.70254e-16 0)
(0.181909 7.08146e-16 0)
(0.181909 -1.72565e-16 0)
(0.19732 -8.67764e-16 0)
(0.19732 2.15961e-16 0)
(0.19732 8.49447e-16 0)
(0.19732 -2.18642e-16 0)
(0.212856 -1.02582e-15 0)
(0.212856 2.69251e-16 0)
(0.212856 1.00776e-15 0)
(0.212856 -2.72354e-16 0)
(0.228516 -1.20276e-15 0)
(0.228516 3.31509e-16 0)
(0.228516 1.18462e-15 0)
(0.228516 -3.34693e-16 0)
(0.244299 -1.4002e-15 0)
(0.244299 4.02997e-16 0)
(0.244299 1.38215e-15 0)
(0.244299 -4.06109e-16 0)
(0.260203 -1.6201e-15 0)
(0.260203 4.84339e-16 0)
(0.260203 1.60182e-15 0)
(0.260203 -4.87027e-16 0)
(0.276229 -1.86469e-15 0)
(0.276229 5.76611e-16 0)
(0.276229 1.8463e-15 0)
(0.276229 -5.78868e-16 0)
(0.292373 -2.13428e-15 0)
(0.292373 6.80704e-16 0)
(0.292373 2.11615e-15 0)
(0.292373 -6.83201e-16 0)
(0.308636 -2.43084e-15 0)
(0.308636 7.98011e-16 0)
(0.308636 2.41306e-15 0)
(0.308636 -8.00999e-16 0)
(0.325016 -2.75623e-15 0)
(0.325016 9.30326e-16 0)
(0.325016 2.73912e-15 0)
(0.325016 -9.33407e-16 0)
(0.341511 -3.11175e-15 0)
(0.341511 1.07844e-15 0)
(0.341511 3.09445e-15 0)
(0.341511 -1.08141e-15 0)
(0.35812 -3.49858e-15 0)
(0.35812 1.24249e-15 0)
(0.35812 3.4807e-15 0)
(0.35812 -1.2456e-15 0)
(0.37484 -3.91971e-15 0)
(0.37484 1.42454e-15 0)
(0.37484 3.90186e-15 0)
(0.37484 -1.42785e-15 0)
(0.39167 -4.37753e-15 0)
(0.39167 1.62786e-15 0)
(0.39167 4.35959e-15 0)
(0.39167 -1.63087e-15 0)
(0.408608 -4.87396e-15 0)
(0.408608 1.85286e-15 0)
(0.408608 4.85578e-15 0)
(0.408608 -1.85539e-15 0)
(0.425651 -5.41063e-15 0)
(0.425651 2.10063e-15 0)
(0.425651 5.39213e-15 0)
(0.425651 -2.1036e-15 0)
(0.442798 -5.98845e-15 0)
(0.442798 2.37338e-15 0)
(0.442798 5.97037e-15 0)
(0.442798 -2.377e-15 0)
(0.460046 -6.60967e-15 0)
(0.460046 2.67297e-15 0)
(0.460046 6.59225e-15 0)
(0.460046 -2.67723e-15 0)
(0.477392 -7.27522e-15 0)
(0.477392 2.99925e-15 0)
(0.477392 7.25853e-15 0)
(0.477392 -3.00473e-15 0)
(0.494834 -7.98635e-15 0)
(0.494834 3.35334e-15 0)
(0.494834 7.97164e-15 0)
(0.494834 -3.36005e-15 0)
(0.512368 -8.74632e-15 0)
(0.512368 3.73804e-15 0)
(0.512368 8.73149e-15 0)
(0.512368 -3.74401e-15 0)
(0.529993 -9.55345e-15 0)
(0.529993 4.15054e-15 0)
(0.529993 9.53594e-15 0)
(0.529993 -4.15395e-15 0)
(0.547703 -1.04037e-14 0)
(0.547703 4.58611e-15 0)
(0.547703 1.03848e-14 0)
(0.547703 -4.5875e-15 0)
(0.565497 -1.12915e-14 0)
(0.565497 5.04164e-15 0)
(0.565497 1.12727e-14 0)
(0.565497 -5.04242e-15 0)
(0.58337 -1.22102e-14 0)
(0.58337 5.50552e-15 0)
(0.58337 1.21915e-14 0)
(0.58337 -5.50701e-15 0)
(0.60132 -1.31572e-14 0)
(0.60132 5.96867e-15 0)
(0.60132 1.3137e-14 0)
(0.60132 -5.96894e-15 0)
(0.619341 -1.41232e-14 0)
(0.619341 6.41294e-15 0)
(0.619341 1.41018e-14 0)
(0.619341 -6.41158e-15 0)
(0.637429 -1.50922e-14 0)
(0.637429 6.80583e-15 0)
(0.637429 1.50712e-14 0)
(0.637429 -6.80536e-15 0)
(0.655581 -1.60396e-14 0)
(0.655581 7.11126e-15 0)
(0.655581 1.60172e-14 0)
(0.655581 -7.10909e-15 0)
(0.673792 -1.69218e-14 0)
(0.673792 7.26958e-15 0)
(0.673792 1.68987e-14 0)
(0.673792 -7.26573e-15 0)
(0.692057 -1.76544e-14 0)
(0.692057 7.17696e-15 0)
(0.692057 1.76311e-14 0)
(0.692057 -7.17318e-15 0)
(0.710372 -1.80846e-14 0)
(0.710372 6.66961e-15 0)
(0.710372 1.80611e-14 0)
(0.710372 -6.66555e-15 0)
(0.728729 -1.79897e-14 0)
(0.728729 5.52819e-15 0)
(0.728729 1.79674e-14 0)
(0.728729 -5.52472e-15 0)
(0.747126 -1.76059e-14 0)
(0.747126 4.11387e-15 0)
(0.747126 1.75848e-14 0)
(0.747126 -4.11191e-15 0)
(0.765555 -1.68649e-14 0)
(0.765555 2.3939e-15 0)
(0.765555 1.68442e-14 0)
(0.765555 -2.39324e-15 0)
(0.78401 -1.61482e-14 0)
(0.78401 8.70953e-16 0)
(0.78401 1.61285e-14 0)
(0.78401 -8.71307e-16 0)
(0.802486 -1.5443e-14 0)
(0.802486 -4.85252e-16 0)
(0.802486 1.54255e-14 0)
(0.802486 4.83072e-16 0)
(0.820976 -1.4723e-14 0)
(0.820976 -1.71039e-15 0)
(0.820976 1.47069e-14 0)
(0.820976 1.70677e-15 0)
(0.839473 -1.39783e-14 0)
(0.839473 -2.82128e-15 0)
(0.839473 1.39623e-14 0)
(0.839473 2.81753e-15 0)
(0.85797 -1.32104e-14 0)
(0.85797 -3.82729e-15 0)
(0.85797 1.31949e-14 0)
(0.85797 3.8246e-15 0)
(0.87646 -1.24176e-14 0)
(0.87646 -4.73067e-15 0)
(0.87646 1.24033e-14 0)
(0.87646 4.72863e-15 0)
(0.894934 -1.16033e-14 0)
(0.894934 -5.53575e-15 0)
(0.894934 1.15875e-14 0)
(0.894934 5.53642e-15 0)
(0.913386 -1.07712e-14 0)
(0.913386 -6.24748e-15 0)
(0.913386 1.07524e-14 0)
(0.913386 6.25139e-15 0)
(0.931805 -9.92876e-15 0)
(0.931805 -6.86503e-15 0)
(0.931805 9.91118e-15 0)
(0.931805 6.86653e-15 0)
(0.950185 -9.08779e-15 0)
(0.950185 -7.38906e-15 0)
(0.950185 9.07298e-15 0)
(0.950185 7.38772e-15 0)
(0.968515 -8.26489e-15 0)
(0.968515 -7.81874e-15 0)
(0.968515 8.24756e-15 0)
(0.968515 7.81994e-15 0)
(0.986786 -7.46972e-15 0)
(0.986786 -8.15603e-15 0)
(0.986786 7.4487e-15 0)
(0.986786 8.16221e-15 0)
(1.00499 -6.70634e-15 0)
(1.00499 -8.4067e-15 0)
(1.00499 6.68348e-15 0)
(1.00499 8.41608e-15 0)
(1.02311 -5.98891e-15 0)
(1.02311 -8.56886e-15 0)
(1.02311 5.96479e-15 0)
(1.02311 8.57841e-15 0)
(1.04115 -5.3278e-15 0)
(1.04115 -8.64716e-15 0)
(1.04115 5.30644e-15 0)
(1.04115 8.65533e-15 0)
(1.05908 -4.73456e-15 0)
(1.05908 -8.65017e-15 0)
(1.05908 4.71732e-15 0)
(1.05908 8.6538e-15 0)
(1.0769 -4.21652e-15 0)
(1.0769 -8.58254e-15 0)
(1.0769 4.20064e-15 0)
(1.0769 8.58242e-15 0)
(1.0946 -3.7823e-15 0)
(1.0946 -8.43511e-15 0)
(1.0946 3.7651e-15 0)
(1.0946 8.43795e-15 0)
(1.11216 -3.42721e-15 0)
(1.11216 -8.22108e-15 0)
(1.11216 3.40965e-15 0)
(1.11216 8.22506e-15 0)
(1.12957 -3.14933e-15 0)
(1.12957 -7.95678e-15 0)
(1.12957 3.1347e-15 0)
(1.12957 7.95576e-15 0)
(1.14682 -2.95177e-15 0)
(1.14682 -7.63696e-15 0)
(1.14682 2.9428e-15 0)
(1.14682 7.63084e-15 0)
(1.16389 -2.82413e-15 0)
(1.16389 -7.26157e-15 0)
(1.16389 2.81943e-15 0)
(1.16389 7.25146e-15 0)
(1.18077 -2.75353e-15 0)
(1.18077 -6.83065e-15 0)
(1.18077 2.74913e-15 0)
(1.18077 6.82143e-15 0)
(1.19744 -2.73803e-15 0)
(1.19744 -6.34033e-15 0)
(1.19744 2.73185e-15 0)
(1.19744 6.33569e-15 0)
(1.2139 -2.77069e-15 0)
(1.2139 -5.79438e-15 0)
(1.2139 2.75997e-15 0)
(1.2139 5.79491e-15 0)
(1.23011 -2.83109e-15 0)
(1.23011 -5.1935e-15 0)
(1.23011 2.82019e-15 0)
(1.23011 5.1952e-15 0)
(1.24607 -2.9094e-15 0)
(1.24607 -4.53241e-15 0)
(1.24607 2.90237e-15 0)
(1.24607 4.52769e-15 0)
(1.26176 -2.97698e-15 0)
(1.26176 -3.80137e-15 0)
(1.26176 2.96971e-15 0)
(1.26176 3.79589e-15 0)
(1.27716 -3.00892e-15 0)
(1.27716 -3.00267e-15 0)
(1.27716 3.0046e-15 0)
(1.27716 2.99791e-15 0)
(1.29225 -2.98165e-15 0)
(1.29225 -2.11438e-15 0)
(1.29225 2.9793e-15 0)
(1.29225 2.10607e-15 0)
(1.30701 -2.86223e-15 0)
(1.30701 -1.13824e-15 0)
(1.30701 2.85598e-15 0)
(1.30701 1.13298e-15 0)
(1.32143 -2.60754e-15 0)
(1.32143 -9.0868e-17 0)
(1.32143 2.60252e-15 0)
(1.32143 8.89572e-17 0)
(1.33548 -2.18165e-15 0)
(1.33548 1.03293e-15 0)
(1.33548 2.17711e-15 0)
(1.33548 -1.03577e-15 0)
(1.34914 -1.53197e-15 0)
(1.34914 2.22501e-15 0)
(1.34914 1.52226e-15 0)
(1.34914 -2.22345e-15 0)
(1.36238 -6.03281e-16 0)
(1.36238 3.45495e-15 0)
(1.36238 5.94285e-16 0)
(1.36238 -3.44702e-15 0)
(1.3752 6.80153e-16 0)
(1.3752 4.68621e-15 0)
(1.3752 -6.84817e-16 0)
(1.3752 -4.6813e-15 0)
(1.38755 2.41311e-15 0)
(1.38755 5.8741e-15 0)
(1.38755 -2.41321e-15 0)
(1.38755 -5.87419e-15 0)
(1.39942 4.36901e-15 0)
(1.39942 7.01078e-15 0)
(1.39942 -4.3716e-15 0)
(1.39942 -7.00682e-15 0)
(1.41078 6.41348e-15 0)
(1.41078 8.0517e-15 0)
(1.41078 -6.4252e-15 0)
(1.41078 -8.03959e-15 0)
(1.42161 8.18232e-15 0)
(1.42161 8.9813e-15 0)
(1.42161 -8.1931e-15 0)
(1.42161 -8.9665e-15 0)
(1.43188 9.53918e-15 0)
(1.43188 9.76201e-15 0)
(1.43188 -9.53986e-15 0)
(1.43188 -9.75363e-15 0)
(1.44155 1.04257e-14 0)
(1.44155 1.03556e-14 0)
(1.44155 -1.04249e-14 0)
(1.44155 -1.03496e-14 0)
(1.4506 1.08642e-14 0)
(1.4506 1.07191e-14 0)
(1.4506 -1.08669e-14 0)
(1.4506 -1.07074e-14 0)
(1.45901 1.08922e-14 0)
(1.45901 1.08195e-14 0)
(1.45901 -1.08959e-14 0)
(1.45901 -1.0806e-14 0)
(1.46673 1.05489e-14 0)
(1.46673 1.06394e-14 0)
(1.46673 -1.05587e-14 0)
(1.46673 -1.06252e-14 0)
(1.47374 9.8982e-15 0)
(1.47374 1.01921e-14 0)
(1.47374 -9.91295e-15 0)
(1.47374 -1.01703e-14 0)
(1.48001 9.00179e-15 0)
(1.48001 9.48423e-15 0)
(1.48001 -9.01305e-15 0)
(1.48001 -9.46108e-15 0)
(1.48549 7.91722e-15 0)
(1.48549 8.5186e-15 0)
(1.48549 -7.92021e-15 0)
(1.48549 -8.50768e-15 0)
(1.49015 6.68219e-15 0)
(1.49015 7.33409e-15 0)
(1.49015 -6.68477e-15 0)
(1.49015 -7.32716e-15 0)
(1.49397 5.33181e-15 0)
(1.49397 5.95347e-15 0)
(1.49397 -5.33952e-15 0)
(1.49397 -5.94294e-15 0)
(1.49688 3.89315e-15 0)
(1.49688 4.39603e-15 0)
(1.49688 -3.90575e-15 0)
(1.49688 -4.38256e-15 0)
(1.49887 2.3799e-15 0)
(1.49887 2.71014e-15 0)
(1.49887 -2.40146e-15 0)
(1.49887 -2.6862e-15 0)
(1.49989 8.04424e-16 0)
(1.49989 9.0618e-16 0)
(1.49989 -8.06273e-16 0)
(1.49989 -9.03016e-16 0)
)
;

boundaryField
{
    inlet
    {
        type            cyclic;
    }
    outlet
    {
        type            cyclic;
    }
    fixedWalls-bottom
    {
        type            noSlip;
    }
    fixedWalls-top
    {
        type            symmetry;
    }
    frontAndBack
    {
        type            empty;
    }
}


// ************************************************************************* //
