/*--------------------------------*- C++ -*----------------------------------*\
  =========                 |
  \\      /  F ield         | OpenFOAM: The Open Source CFD Toolbox
   \\    /   O peration     | Website:  https://openfoam.org
    \\  /    A nd           | Version:  10
     \\/     M anipulation  |
\*---------------------------------------------------------------------------*/
FoamFile
{
    format      ascii;
    class       volScalarField;
    location    "2293";
    object      k;
}
// * * * * * * * * * * * * * * * * * * * * * * * * * * * * * * * * * * * * * //

dimensions      [0 2 -2 0 0 0 0];

internalField   nonuniform List<scalar> 
400
(
3.09002e-09
3.09209e-09
3.09072e-09
3.09131e-09
9.27102e-08
9.27724e-08
9.27313e-08
9.27491e-08
6.56552e-07
6.56992e-07
6.56701e-07
6.56827e-07
2.38674e-06
2.38835e-06
2.38729e-06
2.38774e-06
6.17462e-06
6.17877e-06
6.17602e-06
6.17721e-06
1.30728e-05
1.30816e-05
1.30757e-05
1.30782e-05
2.42839e-05
2.43002e-05
2.42893e-05
2.4294e-05
4.11572e-05
4.11846e-05
4.11658e-05
4.11741e-05
6.51837e-05
6.52263e-05
6.51959e-05
6.52095e-05
9.79842e-05
9.80459e-05
9.79991e-05
9.80206e-05
0.000141283
0.000141367
0.000141297
0.00014133
0.000196857
0.000196964
0.000196865
0.000196913
0.000266459
0.000266586
0.000266448
0.000266516
0.000351695
0.000351836
0.000351649
0.000351744
0.000453882
0.000454026
0.000453775
0.000453905
0.000573862
0.000573992
0.000573666
0.000573838
0.000711829
0.000711926
0.000711509
0.000711735
0.000867174
0.000867219
0.0008667
0.00086699
0.00103841
0.00103839
0.00103776
0.00103812
0.00122319
0.0012231
0.00122234
0.0012228
0.00141847
0.0014183
0.00141742
0.00141798
0.00162069
0.00162044
0.00161944
0.00162012
0.00182611
0.00182578
0.00182467
0.00182548
0.00203103
0.00203065
0.00202942
0.00203038
0.00223211
0.00223169
0.00223035
0.00223146
0.0024267
0.00242623
0.00242478
0.00242609
0.00261362
0.0026131
0.00261155
0.00261308
0.00279157
0.00279099
0.00278933
0.00279111
0.00295947
0.00295882
0.00295705
0.00295912
0.00311657
0.00311583
0.00311395
0.00311632
0.00326233
0.00326148
0.0032595
0.00326219
0.00339648
0.00339548
0.0033934
0.00339645
0.00351891
0.00351773
0.00351557
0.00351899
0.00362967
0.00362827
0.00362604
0.00362987
0.00372892
0.00372725
0.00372498
0.00372925
0.00381688
0.0038149
0.00381263
0.00381736
0.00389381
0.00389149
0.00388924
0.0038945
0.00395999
0.00395731
0.00395512
0.00396095
0.0040157
0.00401264
0.00401055
0.00401701
0.00406125
0.0040578
0.00405583
0.00406287
0.00409764
0.00409376
0.00409194
0.00409946
0.00412537
0.00412101
0.0041194
0.00412735
0.00414492
0.00414009
0.00413869
0.00414702
0.00415673
0.00415146
0.00415027
0.00415893
0.00416125
0.00415554
0.0041546
0.0041635
0.00415886
0.00415278
0.0041521
0.00416117
0.00414996
0.00414358
0.00414315
0.00415235
0.00413494
0.00412832
0.00412813
0.0041374
0.00411415
0.00410732
0.00410741
0.00411668
0.00408792
0.00408091
0.00408123
0.00409052
0.00405654
0.00404938
0.00404988
0.00405922
0.00402028
0.00401299
0.00401362
0.00402302
0.00397935
0.00397195
0.00397268
0.00398217
0.00393398
0.00392648
0.00392726
0.00393685
0.00388433
0.00387675
0.00387757
0.00388725
0.00383057
0.00382293
0.00382375
0.00383352
0.00377285
0.00376516
0.00376596
0.00377582
0.00371128
0.00370357
0.00370433
0.00371426
0.00364599
0.00363829
0.00363899
0.00364898
0.00357708
0.00356944
0.00357003
0.00358007
0.00350464
0.00349711
0.00349757
0.00350763
0.00342877
0.00342143
0.00342169
0.00343177
0.00334954
0.00334249
0.00334246
0.00335257
0.00326702
0.0032604
0.00325995
0.00327014
0.00318127
0.00317526
0.00317427
0.00318457
0.00309235
0.00308713
0.00308556
0.00309595
0.00300067
0.00299597
0.00299395
0.00300436
0.00290636
0.00290182
0.00289961
0.00290991
0.00280953
0.00280475
0.00280273
0.0028127
0.00271028
0.00270487
0.00270358
0.0027128
0.00260829
0.00260241
0.0026021
0.00261041
0.00250371
0.00249779
0.00249812
0.00250563
0.00239671
0.00239097
0.00239158
0.00239853
0.00228742
0.002282
0.00228257
0.00228919
0.00217599
0.00217107
0.00217125
0.00217771
0.00206261
0.0020585
0.00205797
0.00206432
0.00194742
0.00194426
0.00194339
0.00194923
0.0018307
0.00182864
0.00182753
0.00183283
0.00171298
0.00171182
0.00171063
0.00171546
0.00159473
0.00159413
0.00159306
0.00159744
0.0014764
0.00147603
0.0014752
0.00147917
0.00135845
0.0013581
0.00135748
0.00136111
0.00124144
0.00124093
0.0012405
0.00124383
0.001126
0.00112517
0.00112494
0.00112802
0.00101284
0.00101157
0.00101157
0.00101446
0.000902704
0.0009009
0.000901222
0.000904015
0.00079627
0.000794659
0.000794841
0.000797485
0.000694472
0.000693876
0.000693585
0.000695915
0.000598936
0.000598902
0.000598535
0.000600409
0.000510692
0.000510702
0.000510455
0.000511905
0.000430494
0.000430191
0.00043009
0.000431213
0.000358578
0.000358095
0.000358091
0.000358991
0.000295397
0.000294787
0.000294877
0.000295655
0.000241134
0.000240673
0.000240674
0.000241335
0.000195769
0.000195639
0.00019546
0.000196022
0.000159226
0.000159153
0.000159003
0.000159436
0.000130996
0.00013079
0.000130767
0.000131093
0.000110374
0.000110159
0.000110171
0.000110434
9.68957e-05
9.67013e-05
9.67135e-05
9.69445e-05
9.02175e-05
9.00447e-05
9.00418e-05
9.02647e-05
)
;

boundaryField
{
    inlet
    {
        type            cyclic;
    }
    outlet
    {
        type            cyclic;
    }
    fixedWalls-bottom
    {
        type            kqRWallFunction;
        value           nonuniform List<scalar> 4(3.09002e-09 3.09209e-09 3.09072e-09 3.09131e-09);
    }
    fixedWalls-top
    {
        type            symmetry;
    }
    frontAndBack
    {
        type            empty;
    }
}


// ************************************************************************* //
