/*--------------------------------*- C++ -*----------------------------------*\
  =========                 |
  \\      /  F ield         | OpenFOAM: The Open Source CFD Toolbox
   \\    /   O peration     | Website:  https://openfoam.org
    \\  /    A nd           | Version:  10
     \\/     M anipulation  |
\*---------------------------------------------------------------------------*/
FoamFile
{
    format      ascii;
    class       volScalarField;
    location    "2293";
    object      nut;
}
// * * * * * * * * * * * * * * * * * * * * * * * * * * * * * * * * * * * * * //

dimensions      [0 2 -1 0 0 0 0];

internalField   nonuniform List<scalar> 
400
(
2.18206e-13
2.18352e-13
2.18256e-13
2.18297e-13
3.82767e-11
3.83024e-11
3.82854e-11
3.82927e-11
8.05816e-10
8.06357e-10
8.06e-10
8.06154e-10
6.23306e-09
6.23726e-09
6.23449e-09
6.23569e-09
2.84597e-08
2.84791e-08
2.84664e-08
2.84719e-08
9.45749e-08
9.46412e-08
9.45991e-08
9.46174e-08
2.54298e-07
2.54486e-07
2.54373e-07
2.54422e-07
5.87312e-07
5.87784e-07
5.87525e-07
5.87632e-07
1.20872e-06
1.2098e-06
1.20926e-06
1.20948e-06
2.27173e-06
2.27401e-06
2.27294e-06
2.27339e-06
3.96819e-06
3.97255e-06
3.97053e-06
3.97147e-06
6.52845e-06
6.53592e-06
6.53257e-06
6.53428e-06
1.02215e-05
1.02332e-05
1.02278e-05
1.02308e-05
1.53547e-05
1.53713e-05
1.53628e-05
1.53678e-05
2.22692e-05
2.22905e-05
2.22774e-05
2.22854e-05
3.13281e-05
3.13523e-05
3.13326e-05
3.13454e-05
4.28932e-05
4.29166e-05
4.2888e-05
4.29074e-05
5.72931e-05
5.73082e-05
5.72683e-05
5.72992e-05
7.47696e-05
7.47756e-05
7.47205e-05
7.47623e-05
9.5458e-05
9.54497e-05
9.53776e-05
9.54338e-05
0.000119348
0.000119318
0.00011923
0.000119307
0.000146272
0.000146211
0.00014611
0.000146216
0.000175908
0.000175812
0.0001757
0.000175846
0.000207811
0.000207674
0.000207554
0.000207756
0.000241195
0.000241153
0.000241014
0.000241126
0.000271062
0.00027102
0.000270868
0.000270998
0.000301526
0.000301479
0.000301314
0.000301472
0.000332638
0.000332586
0.000332408
0.000332599
0.000364215
0.000364156
0.000363966
0.000364193
0.000396066
0.000396
0.000395798
0.000396062
0.000428021
0.000427949
0.000427734
0.000428034
0.000459956
0.000459878
0.000459648
0.00045998
0.000491811
0.000491727
0.000491481
0.000491831
0.00052363
0.000523538
0.000523271
0.000523618
0.000555592
0.00055549
0.00055519
0.0005555
0.000588045
0.000587921
0.000587571
0.000587793
0.000621485
0.000621309
0.00062089
0.000620979
0.000656174
0.000655886
0.000655435
0.00065555
0.00068901
0.000688622
0.000688623
0.000690721
0.000711421
0.000711201
0.000711069
0.000714858
0.000732389
0.000732109
0.000732051
0.000736183
0.000751903
0.000751344
0.000751534
0.000755973
0.000769954
0.000769082
0.000769447
0.00077424
0.000786384
0.000785462
0.000785828
0.000791026
0.000801618
0.000800298
0.000800941
0.000806345
0.000815295
0.000813803
0.000814781
0.000820281
0.000827592
0.000826099
0.000827221
0.00083296
0.000838541
0.000837195
0.000838389
0.00084435
0.000848173
0.000846839
0.000848793
0.000854299
0.00085653
0.000855224
0.000857741
0.000863018
0.000863631
0.000862341
0.000865262
0.000870523
0.000869488
0.000868207
0.000871432
0.000876815
0.000874111
0.000872833
0.000876303
0.000881892
0.000877509
0.00087623
0.000879904
0.000885749
0.000879684
0.000878401
0.000882249
0.000888388
0.000880642
0.000879346
0.000883341
0.000889808
0.000880383
0.000879046
0.000883183
0.000890015
0.000878905
0.00087751
0.000881771
0.000889012
0.000876202
0.000874744
0.000879097
0.000886797
0.000872269
0.000870747
0.000875141
0.000883356
0.000867085
0.000865526
0.000869868
0.000878666
0.000860612
0.000859088
0.00086322
0.000872697
0.000852785
0.000851441
0.000855154
0.00086543
0.000843458
0.000842617
0.000845656
0.000856854
0.000832273
0.000832701
0.000834705
0.000846947
0.00081833
0.000821937
0.000822274
0.000835684
0.000805114
0.000809143
0.000808365
0.000823022
0.000791056
0.000794833
0.000793146
0.00080889
0.000776499
0.000778766
0.00077724
0.000793136
0.000762583
0.000760341
0.000762375
0.0007754
0.000744585
0.000739854
0.00074708
0.000756624
0.000724809
0.000721255
0.000729589
0.000736525
0.000703661
0.000700505
0.000709105
0.000715364
0.000681097
0.000678015
0.000685571
0.000693062
0.000657068
0.000654292
0.000658984
0.000669315
0.000631457
0.000631253
0.000630856
0.000643847
0.000603896
0.000604944
0.000605828
0.000615835
0.000574388
0.000578007
0.000577785
0.000587288
0.000544463
0.000548999
0.000548464
0.00055767
0.000513702
0.000518495
0.000518237
0.000526872
0.000482085
0.0004868
0.000486863
0.000494909
0.000449683
0.000454128
0.000454356
0.000461881
0.000416644
0.000420641
0.000420966
0.000428008
0.000383202
0.000386435
0.000387072
0.000393643
0.000349643
0.000351321
0.000353166
0.000359195
0.000316114
0.000314077
0.000319675
0.000324808
0.00028178
0.000281389
0.000283991
0.000290676
0.000246283
0.000251966
0.000249908
0.000256961
0.00021504
0.000220302
0.000218884
0.000224364
0.000186131
0.000189962
0.000189431
0.000193619
0.000160769
0.000161253
0.000161993
0.000165047
0.000135339
0.000135683
0.000136683
0.000139198
0.000112775
0.000111552
0.00011413
0.000116143
9.27243e-05
9.23796e-05
9.33026e-05
9.59853e-05
7.50586e-05
7.69621e-05
7.59139e-05
7.88528e-05
6.18233e-05
6.29601e-05
6.26519e-05
6.48277e-05
5.20885e-05
5.14941e-05
5.24658e-05
5.39303e-05
4.44065e-05
4.38486e-05
4.49196e-05
4.60267e-05
3.95044e-05
3.90437e-05
4.00118e-05
4.10609e-05
3.73294e-05
3.70535e-05
3.76265e-05
3.90269e-05
)
;

boundaryField
{
    inlet
    {
        type            cyclic;
    }
    outlet
    {
        type            cyclic;
    }
    fixedWalls-bottom
    {
        type            nutkWallFunction;
        Cmu             0.09;
        kappa           0.41;
        E               9.8;
        value           uniform 0;
    }
    fixedWalls-top
    {
        type            symmetry;
    }
    frontAndBack
    {
        type            empty;
    }
}


// ************************************************************************* //
