/*--------------------------------*- C++ -*----------------------------------*\
  =========                 |
  \\      /  F ield         | OpenFOAM: The Open Source CFD Toolbox
   \\    /   O peration     | Website:  https://openfoam.org
    \\  /    A nd           | Version:  10
     \\/     M anipulation  |
\*---------------------------------------------------------------------------*/
FoamFile
{
    format      ascii;
    class       volScalarField;
    location    "2293";
    object      p;
}
// * * * * * * * * * * * * * * * * * * * * * * * * * * * * * * * * * * * * * //

dimensions      [0 2 -2 0 0 0 0];

internalField   nonuniform List<scalar> 
400
(
3.10334e-12
-2.12728e-06
-7.23809e-06
-5.11419e-06
-2.36893e-09
-2.12916e-06
-7.23572e-06
-5.11231e-06
-4.84747e-09
-2.13125e-06
-7.23324e-06
-5.11023e-06
-6.90332e-09
-2.13317e-06
-7.23118e-06
-5.1083e-06
-8.54823e-09
-2.13497e-06
-7.22954e-06
-5.1065e-06
-9.80003e-09
-2.13671e-06
-7.22828e-06
-5.10477e-06
-1.06221e-08
-2.13841e-06
-7.22746e-06
-5.10306e-06
-1.09564e-08
-2.14011e-06
-7.22713e-06
-5.10137e-06
-1.07401e-08
-2.14182e-06
-7.22734e-06
-5.09966e-06
-9.90289e-09
-2.14358e-06
-7.22818e-06
-5.0979e-06
-8.36891e-09
-2.14541e-06
-7.22971e-06
-5.09607e-06
-6.05544e-09
-2.14735e-06
-7.23202e-06
-5.09413e-06
-2.87421e-09
-2.14941e-06
-7.2352e-06
-5.09207e-06
1.27374e-09
-2.15165e-06
-7.23935e-06
-5.08983e-06
6.49421e-09
-2.15416e-06
-7.24457e-06
-5.08732e-06
1.2898e-08
-2.15713e-06
-7.25098e-06
-5.08435e-06
2.05836e-08
-2.16082e-06
-7.25866e-06
-5.08066e-06
2.96176e-08
-2.16562e-06
-7.2677e-06
-5.07586e-06
4.01551e-08
-2.17189e-06
-7.27823e-06
-5.06959e-06
5.23699e-08
-2.17992e-06
-7.29045e-06
-5.06156e-06
6.61948e-08
-2.18999e-06
-7.30428e-06
-5.05149e-06
8.12912e-08
-2.20242e-06
-7.31937e-06
-5.03907e-06
9.70902e-08
-2.21752e-06
-7.33517e-06
-5.02397e-06
1.13495e-07
-2.23505e-06
-7.35158e-06
-5.00643e-06
1.33116e-07
-2.25275e-06
-7.3712e-06
-4.98874e-06
1.56964e-07
-2.26988e-06
-7.39505e-06
-4.97161e-06
1.83059e-07
-2.2881e-06
-7.42114e-06
-4.95339e-06
2.10794e-07
-2.30789e-06
-7.44888e-06
-4.9336e-06
2.40196e-07
-2.32922e-06
-7.47828e-06
-4.91227e-06
2.71368e-07
-2.35204e-06
-7.50945e-06
-4.88945e-06
3.04439e-07
-2.37638e-06
-7.54252e-06
-4.86511e-06
3.39647e-07
-2.40228e-06
-7.57773e-06
-4.83922e-06
3.7739e-07
-2.4298e-06
-7.61547e-06
-4.8117e-06
4.18337e-07
-2.45906e-06
-7.65642e-06
-4.78244e-06
4.63889e-07
-2.49039e-06
-7.70196e-06
-4.75112e-06
5.17239e-07
-2.52465e-06
-7.7553e-06
-4.71684e-06
5.8261e-07
-2.56335e-06
-7.82065e-06
-4.67814e-06
6.53823e-07
-2.6065e-06
-7.89185e-06
-4.63502e-06
6.91687e-07
-2.64813e-06
-7.9297e-06
-4.59351e-06
6.73598e-07
-2.68596e-06
-7.91162e-06
-4.5558e-06
6.26445e-07
-2.72387e-06
-7.86447e-06
-4.51795e-06
5.6942e-07
-2.76362e-06
-7.80744e-06
-4.47823e-06
5.02475e-07
-2.80728e-06
-7.74049e-06
-4.43458e-06
4.25704e-07
-2.8554e-06
-7.66372e-06
-4.38644e-06
3.39389e-07
-2.90743e-06
-7.5774e-06
-4.33437e-06
2.43311e-07
-2.96048e-06
-7.48132e-06
-4.28126e-06
1.38815e-07
-3.01136e-06
-7.37682e-06
-4.2303e-06
2.79772e-08
-3.05808e-06
-7.26599e-06
-4.18352e-06
-8.81986e-08
-3.09223e-06
-7.14983e-06
-4.14931e-06
-2.1033e-07
-3.10878e-06
-7.02771e-06
-4.13276e-06
-3.39615e-07
-3.11212e-06
-6.89844e-06
-4.12945e-06
-4.77366e-07
-3.10682e-06
-6.76069e-06
-4.13478e-06
-6.24485e-07
-3.09541e-06
-6.61357e-06
-4.14624e-06
-7.81452e-07
-3.07918e-06
-6.4566e-06
-4.16252e-06
-9.48488e-07
-3.05902e-06
-6.28956e-06
-4.18271e-06
-1.12584e-06
-3.03576e-06
-6.11219e-06
-4.20601e-06
-1.31413e-06
-3.01024e-06
-5.92389e-06
-4.23156e-06
-1.51425e-06
-2.98329e-06
-5.72376e-06
-4.25854e-06
-1.72699e-06
-2.95577e-06
-5.51101e-06
-4.28608e-06
-1.95282e-06
-2.92877e-06
-5.28516e-06
-4.31309e-06
-2.19166e-06
-2.90379e-06
-5.0463e-06
-4.33805e-06
-2.44259e-06
-2.88313e-06
-4.79536e-06
-4.35867e-06
-2.70388e-06
-2.86956e-06
-4.53404e-06
-4.37216e-06
-2.97254e-06
-2.86316e-06
-4.26536e-06
-4.37843e-06
-3.24276e-06
-2.85397e-06
-3.99512e-06
-4.38755e-06
-3.50635e-06
-2.82084e-06
-3.73152e-06
-4.4208e-06
-3.76465e-06
-2.77627e-06
-3.47322e-06
-4.46562e-06
-4.02497e-06
-2.75696e-06
-3.21291e-06
-4.48505e-06
-4.29106e-06
-2.77767e-06
-2.94682e-06
-4.46419e-06
-4.57265e-06
-2.82969e-06
-2.66524e-06
-4.41174e-06
-4.88542e-06
-2.85787e-06
-2.35248e-06
-4.3832e-06
-5.20288e-06
-2.81741e-06
-2.03499e-06
-4.42372e-06
-5.4982e-06
-2.73133e-06
-1.7396e-06
-4.51013e-06
-5.79031e-06
-2.65128e-06
-1.44743e-06
-4.59045e-06
-6.08353e-06
-2.62641e-06
-1.15421e-06
-4.61525e-06
-6.34343e-06
-2.66824e-06
-8.94351e-07
-4.57306e-06
-6.5504e-06
-2.70864e-06
-6.8738e-07
-4.53247e-06
-6.71643e-06
-2.69595e-06
-5.21352e-07
-4.54527e-06
-6.85613e-06
-2.65157e-06
-3.81673e-07
-4.58986e-06
-6.98552e-06
-2.59395e-06
-2.52279e-07
-4.64764e-06
-7.10968e-06
-2.52892e-06
-1.28083e-07
-4.71279e-06
-7.22653e-06
-2.46325e-06
-1.11961e-08
-4.77855e-06
-7.33274e-06
-2.40374e-06
9.50201e-08
-4.83813e-06
-7.43071e-06
-2.35345e-06
1.92962e-07
-4.88845e-06
-7.53966e-06
-2.31182e-06
3.01896e-07
-4.93008e-06
-7.69365e-06
-2.2803e-06
4.55925e-07
-4.96148e-06
-7.8593e-06
-2.26551e-06
6.21635e-07
-4.97611e-06
-7.95806e-06
-2.24243e-06
7.20414e-07
-4.99918e-06
-7.99668e-06
-2.19739e-06
7.58987e-07
-5.04432e-06
-8.01936e-06
-2.15866e-06
7.81629e-07
-5.08312e-06
-8.03916e-06
-2.14967e-06
8.01399e-07
-5.09211e-06
-8.05923e-06
-2.15998e-06
8.21441e-07
-5.08178e-06
-8.0881e-06
-2.17042e-06
8.50306e-07
-5.0713e-06
-8.11498e-06
-2.18476e-06
8.77171e-07
-5.05694e-06
-8.12034e-06
-2.19814e-06
8.82511e-07
-5.04355e-06
-8.11414e-06
-2.20743e-06
8.76293e-07
-5.03426e-06
-8.11122e-06
-2.21821e-06
8.73362e-07
-5.02347e-06
-8.11109e-06
-2.22819e-06
8.73227e-07
-5.01348e-06
-8.11062e-06
-2.23395e-06
8.72747e-07
-5.00772e-06
-8.1108e-06
-2.23658e-06
8.72924e-07
-5.00508e-06
)
;

boundaryField
{
    inlet
    {
        type            cyclic;
    }
    outlet
    {
        type            cyclic;
    }
    fixedWalls-bottom
    {
        type            zeroGradient;
    }
    fixedWalls-top
    {
        type            symmetry;
    }
    frontAndBack
    {
        type            empty;
    }
}


// ************************************************************************* //
