/*--------------------------------*- C++ -*----------------------------------*\
  =========                 |
  \\      /  F ield         | OpenFOAM: The Open Source CFD Toolbox
   \\    /   O peration     | Website:  https://openfoam.org
    \\  /    A nd           | Version:  10
     \\/     M anipulation  |
\*---------------------------------------------------------------------------*/
FoamFile
{
    format      ascii;
    class       volScalarField;
    location    "2500";
    object      k;
}
// * * * * * * * * * * * * * * * * * * * * * * * * * * * * * * * * * * * * * //

dimensions      [0 2 -2 0 0 0 0];

internalField   nonuniform List<scalar> 
400
(
1.34829e-08
1.35007e-08
1.34993e-08
1.34964e-08
4.04523e-07
4.05057e-07
4.05015e-07
4.04929e-07
2.86462e-06
2.86841e-06
2.86811e-06
2.8675e-06
1.04119e-05
1.04257e-05
1.04246e-05
1.04224e-05
2.69224e-05
2.69581e-05
2.69552e-05
2.69495e-05
5.69306e-05
5.70064e-05
5.69999e-05
5.69879e-05
0.000105498
0.000105639
0.000105626
0.000105604
0.000178031
0.000178268
0.000178243
0.000178207
0.000279978
0.000280346
0.000280302
0.000280246
0.000416387
0.000416922
0.000416846
0.000416766
0.000591329
0.000592055
0.000591928
0.000591822
0.000807252
0.000808176
0.000807974
0.00080784
0.0010644
0.0010655
0.0010652
0.00106503
0.00136042
0.00136165
0.00136121
0.00136101
0.00169028
0.00169157
0.00169095
0.00169073
0.00204658
0.00204787
0.00204704
0.00204679
0.00242027
0.00242151
0.00242046
0.00242017
0.0028016
0.00280276
0.00280149
0.00280118
0.00318114
0.00318219
0.00318074
0.00318041
0.00355054
0.00355148
0.00354989
0.00354956
0.00390332
0.00390414
0.00390246
0.00390216
0.00423585
0.00423653
0.00423475
0.00423452
0.00454653
0.00454708
0.0045452
0.00454508
0.00483363
0.00483403
0.00483209
0.0048321
0.00509614
0.00509638
0.00509439
0.00509456
0.00533372
0.00533379
0.00533176
0.00533211
0.00554658
0.00554648
0.00554443
0.00554499
0.00573543
0.00573515
0.00573309
0.0057339
0.00590124
0.00590081
0.00589875
0.00589985
0.00604527
0.00604472
0.00604263
0.00604406
0.00616886
0.0061682
0.00616608
0.00616789
0.00627345
0.00627268
0.00627053
0.00627274
0.00636048
0.00635956
0.00635738
0.00636002
0.00643136
0.00643024
0.00642805
0.00643114
0.00648745
0.00648607
0.00648393
0.00648748
0.0065301
0.0065284
0.00652634
0.00653035
0.00656053
0.00655846
0.00655654
0.006561
0.00657999
0.00657754
0.0065758
0.00658069
0.00658955
0.00658672
0.00658517
0.00659047
0.00659015
0.00658695
0.0065856
0.00659127
0.00658248
0.00657892
0.00657777
0.00658387
0.00656731
0.00656338
0.0065624
0.00656888
0.00654511
0.0065408
0.00653998
0.00654687
0.00651632
0.00651162
0.00651095
0.00651826
0.00648136
0.00647627
0.00647574
0.00648344
0.00644062
0.00643516
0.00643477
0.00644282
0.00639448
0.00638867
0.00638841
0.00639678
0.00634331
0.00633717
0.00633703
0.00634569
0.00628743
0.00628097
0.00628096
0.00628989
0.00622713
0.00622037
0.00622048
0.00622966
0.00616267
0.00615565
0.00615584
0.00616527
0.00609425
0.00608699
0.00608725
0.00609691
0.00602205
0.00601459
0.0060149
0.00602477
0.00594622
0.00593859
0.00593892
0.00594899
0.00586688
0.0058591
0.00585943
0.00586969
0.00578414
0.00577622
0.00577654
0.00578698
0.00569809
0.00569005
0.00569034
0.00570095
0.00560879
0.00560066
0.0056009
0.00561166
0.00551633
0.0055081
0.00550829
0.0055192
0.00542075
0.00541244
0.00541258
0.00542361
0.00532211
0.00531372
0.00531382
0.00532495
0.00522046
0.00521199
0.00521206
0.00522328
0.00511583
0.00510729
0.00510735
0.00511862
0.00500826
0.00499966
0.00499974
0.00501101
0.0048978
0.0048891
0.00488929
0.0049005
0.00478446
0.00477567
0.00477601
0.0047871
0.00466825
0.00465943
0.00466
0.00467081
0.00454921
0.0045404
0.0045412
0.00455173
0.00442737
0.00441861
0.00441966
0.00442989
0.0043028
0.00429413
0.00429537
0.00430534
0.00417553
0.00416698
0.0041683
0.00417811
0.00404562
0.00403722
0.0040385
0.00404821
0.00391309
0.00390492
0.00390597
0.00391565
0.00377797
0.00377015
0.00377072
0.00378047
0.00364032
0.00363298
0.00363271
0.00364276
0.00350012
0.00349345
0.00349205
0.00350262
0.00335721
0.00335185
0.00334917
0.00336007
0.00321214
0.00320776
0.00320434
0.00321519
0.00306551
0.00306084
0.00305756
0.0030681
0.0029168
0.00291179
0.00290884
0.00291891
0.00276601
0.00276087
0.00275839
0.00276776
0.00261337
0.00260818
0.00260633
0.00261486
0.00245913
0.00245393
0.00245289
0.00246045
0.00230362
0.00229844
0.00229812
0.00230484
0.00214719
0.0021421
0.00214222
0.00214835
0.00199025
0.00198543
0.00198568
0.00199136
0.00183333
0.00182896
0.00182908
0.00183432
0.00167707
0.00167337
0.00167296
0.00167794
0.00152229
0.00151946
0.00151809
0.00152311
0.00136977
0.00136846
0.00136583
0.00137095
0.00122167
0.00122075
0.00121806
0.00122284
0.00107887
0.00107864
0.00107622
0.00108036
0.00094366
0.000943824
0.000941841
0.00094529
0.000818538
0.000818207
0.00081666
0.000819578
0.000704995
0.00070439
0.000703072
0.00070551
0.000605209
0.000604684
0.000603696
0.000605535
0.000521554
0.000521486
0.000520855
0.00052208
0.000456686
0.000456763
0.000456459
0.000457295
0.000412458
0.000412269
0.000412192
0.000412945
0.000390024
0.000389278
0.000389497
0.00039041
)
;

boundaryField
{
    inlet
    {
        type            cyclic;
    }
    outlet
    {
        type            cyclic;
    }
    fixedWalls-bottom
    {
        type            kqRWallFunction;
        value           nonuniform List<scalar> 4(1.34829e-08 1.35007e-08 1.34993e-08 1.34964e-08);
    }
    fixedWalls-top
    {
        type            symmetry;
    }
    frontAndBack
    {
        type            empty;
    }
}


// ************************************************************************* //
