/*--------------------------------*- C++ -*----------------------------------*\
  =========                 |
  \\      /  F ield         | OpenFOAM: The Open Source CFD Toolbox
   \\    /   O peration     | Website:  https://openfoam.org
    \\  /    A nd           | Version:  10
     \\/     M anipulation  |
\*---------------------------------------------------------------------------*/
FoamFile
{
    format      ascii;
    class       volScalarField;
    location    "2500";
    object      nut;
}
// * * * * * * * * * * * * * * * * * * * * * * * * * * * * * * * * * * * * * //

dimensions      [0 2 -1 0 0 0 0];

internalField   nonuniform List<scalar> 
400
(
1.19395e-12
1.19552e-12
1.1954e-12
1.19514e-12
2.09428e-10
2.09704e-10
2.09682e-10
2.09638e-10
4.4079e-09
4.41372e-09
4.41325e-09
4.41232e-09
3.40636e-08
3.41087e-08
3.41051e-08
3.40979e-08
1.55147e-07
1.55355e-07
1.55338e-07
1.55305e-07
5.12936e-07
5.13641e-07
5.13585e-07
5.13473e-07
1.3669e-06
1.36888e-06
1.36873e-06
1.36842e-06
3.11359e-06
3.11843e-06
3.11807e-06
3.11734e-06
6.28531e-06
6.29601e-06
6.2952e-06
6.29369e-06
1.15216e-05
1.15431e-05
1.15413e-05
1.15385e-05
1.95237e-05
1.95626e-05
1.95587e-05
1.95543e-05
3.10069e-05
3.10702e-05
3.10616e-05
3.10566e-05
4.66616e-05
4.67539e-05
4.67396e-05
4.67315e-05
6.71192e-05
6.72408e-05
6.72156e-05
6.72066e-05
9.29118e-05
9.30567e-05
9.30135e-05
9.30047e-05
0.000124428
0.000124583
0.000124511
0.000124505
0.000161868
0.000162013
0.000161899
0.000161902
0.000205183
0.00020531
0.000205146
0.000205143
0.000254113
0.000254216
0.000253987
0.000253981
0.000308202
0.000308268
0.000307964
0.000307962
0.000363933
0.000364028
0.000363865
0.000363808
0.000417167
0.000417258
0.000417094
0.000417033
0.000472301
0.000472383
0.000472202
0.000472149
0.000529415
0.000529484
0.000529286
0.000529246
0.000588118
0.000588168
0.000587954
0.000587934
0.000647948
0.000647975
0.000647749
0.000647752
0.000708437
0.000708436
0.000708201
0.000708236
0.000769132
0.000769101
0.000768862
0.000768937
0.000829621
0.000829564
0.000829325
0.000829451
0.000889566
0.000889495
0.000889257
0.000889441
0.000948751
0.000948677
0.000948444
0.000948687
0.00100713
0.00100707
0.00100684
0.00100713
0.00106489
0.00106486
0.00106464
0.00106494
0.00112249
0.00112251
0.00112229
0.00112253
0.00118033
0.00118043
0.00118019
0.00118026
0.00123728
0.00123749
0.00123722
0.00123695
0.00128906
0.00128935
0.00128896
0.00128834
0.00133856
0.00133884
0.00133827
0.00133723
0.00138611
0.00138616
0.00138546
0.00138412
0.00142958
0.00142885
0.0014288
0.00142826
0.0014598
0.00145901
0.00146049
0.0014657
0.00148775
0.00148688
0.0014884
0.00149414
0.00151351
0.00151257
0.00151401
0.00152038
0.00153716
0.00153613
0.0015374
0.00154449
0.00155872
0.00155756
0.00155883
0.00156649
0.0015782
0.00157699
0.00157862
0.00158639
0.00159568
0.00159446
0.00159641
0.00160438
0.00161123
0.00160998
0.00161227
0.00162053
0.00162493
0.00162359
0.00162632
0.00163493
0.00163685
0.00163541
0.00163866
0.00164765
0.00164708
0.00164552
0.00164938
0.00165877
0.00165572
0.00165405
0.00165851
0.00166834
0.00166287
0.00166114
0.0016661
0.00167644
0.0016686
0.00166683
0.00167216
0.00168309
0.0016729
0.00167112
0.00167672
0.00168832
0.00167579
0.001674
0.00167978
0.00169211
0.00167722
0.00167543
0.00168134
0.00169447
0.00167717
0.00167539
0.00168136
0.00169535
0.00167562
0.00167384
0.00167981
0.00169474
0.00167254
0.00167073
0.00167664
0.00169259
0.0016679
0.00166598
0.00167178
0.00168884
0.00166165
0.00165957
0.00166523
0.00168345
0.00165378
0.00165147
0.00165704
0.00167631
0.00164421
0.00164147
0.00164734
0.0016673
0.00163286
0.00162878
0.00163624
0.00165623
0.00161968
0.00161443
0.00162354
0.00164296
0.00160453
0.00159893
0.00161126
0.00162717
0.00158711
0.0015813
0.00159541
0.0016104
0.00156746
0.001562
0.001579
0.00159153
0.00154604
0.00154066
0.00155928
0.00157112
0.00152282
0.00151723
0.00153658
0.00154882
0.00149763
0.00149173
0.00151092
0.00152452
0.00147031
0.00146417
0.00148194
0.00149819
0.00144064
0.00143456
0.00144902
0.00147001
0.00140817
0.00140297
0.00141163
0.00144023
0.00137158
0.0013702
0.00137236
0.0014083
0.00132694
0.00134156
0.001335
0.00137262
0.00128987
0.00130114
0.00129765
0.00133389
0.00125782
0.00125186
0.00125704
0.00129221
0.00121462
0.00120787
0.00121349
0.0012476
0.00116863
0.00116132
0.0011695
0.00119959
0.00112012
0.00111187
0.00112287
0.00114924
0.00106879
0.0010601
0.00107547
0.00109614
0.00101509
0.00100632
0.00102261
0.00104162
0.000959174
0.000950436
0.000966555
0.000984867
0.000901123
0.000892627
0.000907959
0.000925813
0.000841074
0.000833175
0.000846406
0.000864814
0.000779057
0.000772581
0.000780894
0.000802463
0.00071446
0.000711864
0.000711711
0.0007393
0.000644823
0.000655359
0.000643772
0.000675628
0.000587083
0.000587055
0.000581951
0.000610785
0.000518668
0.000531437
0.000520396
0.000547017
0.000460094
0.000469161
0.000462876
0.000484762
0.000409091
0.00040616
0.000406251
0.000425048
0.000356127
0.000353317
0.000353541
0.000369402
0.000307943
0.000307295
0.000307626
0.000319114
0.000264356
0.000272262
0.000268917
0.000276899
0.000234137
0.000240851
0.000240019
0.000244909
0.000214376
0.000218415
0.000220197
0.000224406
0.000205876
0.000204113
0.00021259
0.000216921
)
;

boundaryField
{
    inlet
    {
        type            cyclic;
    }
    outlet
    {
        type            cyclic;
    }
    fixedWalls-bottom
    {
        type            nutkWallFunction;
        Cmu             0.09;
        kappa           0.41;
        E               9.8;
        value           uniform 0;
    }
    fixedWalls-top
    {
        type            symmetry;
    }
    frontAndBack
    {
        type            empty;
    }
}


// ************************************************************************* //
