/*--------------------------------*- C++ -*----------------------------------*\
  =========                 |
  \\      /  F ield         | OpenFOAM: The Open Source CFD Toolbox
   \\    /   O peration     | Website:  https://openfoam.org
    \\  /    A nd           | Version:  10
     \\/     M anipulation  |
\*---------------------------------------------------------------------------*/
FoamFile
{
    format      ascii;
    class       surfaceScalarField;
    location    "2500";
    object      phi;
}
// * * * * * * * * * * * * * * * * * * * * * * * * * * * * * * * * * * * * * //

dimensions      [0 3 -1 0 0 0 0];

internalField   nonuniform List<scalar> 
696
(
0.000117935
-1.15092e-08
0.000117944
-9.06214e-09
0.000117932
1.13095e-08
9.06564e-09
0.000359369
-4.23243e-08
0.000359396
-3.57696e-08
0.000359365
4.21186e-08
3.57789e-08
0.000609858
-9.04231e-08
0.000609902
-8.00204e-08
0.000609854
9.02163e-08
8.00355e-08
0.000869632
-1.53954e-07
0.000869694
-1.41709e-07
0.000869631
1.53741e-07
1.4173e-07
0.00113891
-2.3109e-07
0.00113899
-2.20608e-07
0.00113892
2.30875e-07
2.20635e-07
0.00141789
-3.2015e-07
0.00141798
-3.16316e-07
0.00141789
3.19929e-07
3.1635e-07
0.00170666
-4.19636e-07
0.00170678
-4.28205e-07
0.00170668
4.19413e-07
4.28245e-07
0.00200523
-5.28336e-07
0.00200536
-5.55289e-07
0.00200525
5.28107e-07
5.55336e-07
0.0023134
-6.45333e-07
0.00231354
-6.96029e-07
0.00231342
6.45102e-07
6.96083e-07
0.00263071
-7.70046e-07
0.00263086
-8.48025e-07
0.00263073
7.69809e-07
8.48086e-07
0.00295644
-9.02162e-07
0.0029566
-1.00775e-06
0.00295647
9.01922e-07
1.00781e-06
0.00328958
-1.04161e-06
0.00328974
-1.17048e-06
0.0032896
1.04137e-06
1.17056e-06
0.00362884
-1.18827e-06
0.003629
-1.33057e-06
0.00362885
1.18802e-06
1.33066e-06
0.00397272
-1.34176e-06
0.00397288
-1.48227e-06
0.00397272
1.3415e-06
1.48236e-06
0.00431963
-1.50102e-06
0.00431977
-1.62124e-06
0.00431961
1.50076e-06
1.62134e-06
0.00466795
-1.66392e-06
0.00466807
-1.74602e-06
0.00466791
1.66365e-06
1.74613e-06
0.00501615
-1.82711e-06
0.00501626
-1.85927e-06
0.0050161
1.82684e-06
1.85939e-06
0.00536296
-1.9854e-06
0.00536307
-1.96646e-06
0.00536291
1.98512e-06
1.96658e-06
0.00570738
-2.13195e-06
0.00570748
-2.07451e-06
0.00570734
2.13167e-06
2.07464e-06
0.00604873
-2.26017e-06
0.00604885
-2.19222e-06
0.00604872
2.25989e-06
2.19236e-06
0.00638702
-2.37389e-06
0.00638714
-2.31268e-06
0.00638703
2.37361e-06
2.31283e-06
0.00672311
-2.48033e-06
0.00672322
-2.42447e-06
0.00672311
2.48004e-06
2.42462e-06
0.00705774
-2.58074e-06
0.00705784
-2.52736e-06
0.00705774
2.58044e-06
2.52752e-06
0.00739113
-2.67599e-06
0.00739122
-2.62223e-06
0.00739113
2.67568e-06
2.62239e-06
0.00772352
-2.767e-06
0.00772361
-2.71006e-06
0.00772352
2.76669e-06
2.71023e-06
0.00805523
-2.85487e-06
0.00805531
-2.79178e-06
0.00805522
2.85456e-06
2.79196e-06
0.00838661
-2.941e-06
0.00838668
-2.86813e-06
0.0083866
2.94068e-06
2.86832e-06
0.00871804
-3.02721e-06
0.00871811
-2.93945e-06
0.00871803
3.02689e-06
2.93964e-06
0.00904994
-3.11576e-06
0.00905001
-3.00532e-06
0.00904992
3.11543e-06
3.00551e-06
0.00938273
-3.20912e-06
0.00938279
-3.06419e-06
0.0093827
3.20878e-06
3.06439e-06
0.00971681
-3.30951e-06
0.00971686
-3.11309e-06
0.00971676
3.30917e-06
3.1133e-06
0.0100526
-3.4182e-06
0.0100526
-3.14744e-06
0.0100525
3.41786e-06
3.14766e-06
0.0103903
-3.5342e-06
0.0103903
-3.16084e-06
0.0103902
3.53385e-06
3.16107e-06
0.0107304
-3.65228e-06
0.0107303
-3.14517e-06
0.0107302
3.65193e-06
3.1454e-06
0.0110729
-3.7602e-06
0.0110728
-3.09098e-06
0.0110727
3.75984e-06
3.09122e-06
0.0114181
-3.83587e-06
0.011418
-2.98825e-06
0.011418
3.83551e-06
2.98849e-06
0.0117666
-3.84757e-06
0.0117664
-2.83005e-06
0.0117664
3.84721e-06
2.8303e-06
0.0121186
-3.75331e-06
0.0121184
-2.61824e-06
0.0121185
3.75294e-06
2.61849e-06
0.0124747
-3.50572e-06
0.0124744
-2.36743e-06
0.0124747
3.50534e-06
2.36769e-06
0.0128351
-3.09432e-06
0.0128348
-2.1e-06
0.0128352
3.09394e-06
2.10027e-06
0.0132006
-2.66264e-06
0.0132004
-1.81152e-06
0.0132008
2.66226e-06
1.8118e-06
0.0135721
-2.33206e-06
0.0135718
-1.49735e-06
0.0135721
2.33166e-06
1.49764e-06
0.0139496
-2.08272e-06
0.0139493
-1.17958e-06
0.0139495
2.08231e-06
1.17987e-06
0.0143335
-1.89435e-06
0.0143332
-8.79367e-07
0.0143334
1.89393e-06
8.79671e-07
0.014724
-1.7483e-06
0.0147238
-6.13703e-07
0.0147239
1.74788e-06
6.14015e-07
0.0151214
-1.62658e-06
0.0151211
-3.86098e-07
0.0151213
1.62616e-06
3.8642e-07
0.0155258
-1.51239e-06
0.0155256
-1.9052e-07
0.0155257
1.51195e-06
1.90852e-07
0.0159374
-1.39384e-06
0.0159373
-2.14472e-08
0.0159374
1.3934e-06
2.17898e-08
0.0163566
-1.26523e-06
0.0163565
1.26435e-07
0.0163566
1.26478e-06
-1.26081e-07
0.0167835
-1.12688e-06
0.0167834
2.58869e-07
0.0167835
1.12641e-06
-2.58502e-07
0.0172183
-9.83832e-07
0.0172182
3.82491e-07
0.0172183
9.83355e-07
-3.82111e-07
0.0176612
-8.43782e-07
0.0176611
5.04557e-07
0.0176612
8.43291e-07
-5.04163e-07
0.0181124
-7.1412e-07
0.0181123
6.31327e-07
0.0181124
7.13616e-07
-6.30917e-07
0.0185721
-5.99679e-07
0.0185719
7.66716e-07
0.018572
5.9916e-07
-7.6629e-07
0.0190403
-5.02555e-07
0.0190402
9.12622e-07
0.0190403
5.02021e-07
-9.12179e-07
0.0195174
-4.22587e-07
0.0195173
1.06984e-06
0.0195173
4.22036e-07
-1.06938e-06
0.0200035
-3.57734e-07
0.0200033
1.23881e-06
0.0200034
3.57167e-07
-1.23833e-06
0.0204987
-3.03983e-07
0.0204985
1.4198e-06
0.0204986
3.03399e-07
-1.4193e-06
0.0210032
-2.55319e-07
0.021003
1.61245e-06
0.0210031
2.54717e-07
-1.61194e-06
0.0215173
-2.03652e-07
0.0215171
1.81418e-06
0.0215171
2.03032e-07
-1.81365e-06
0.022041
-1.39855e-07
0.0220408
2.01764e-06
0.0220408
1.39218e-07
-2.01709e-06
0.0225745
-5.3705e-08
0.0225743
2.20857e-06
0.0225744
5.30495e-08
-2.20799e-06
0.0231181
6.70582e-08
0.0231179
2.36569e-06
0.023118
-6.77305e-08
-2.3651e-06
0.0236718
2.33367e-07
0.0236717
2.46364e-06
0.0236719
-2.34057e-07
-2.46303e-06
0.024236
4.34441e-07
0.024236
2.47793e-06
0.0242362
-4.35148e-07
-2.4773e-06
0.0248107
6.44486e-07
0.0248108
2.38627e-06
0.024811
-6.4521e-07
-2.38562e-06
0.0253962
8.64979e-07
0.0253964
2.22046e-06
0.0253966
-8.65719e-07
-2.21979e-06
0.0259927
1.08971e-06
0.0259929
2.03351e-06
0.0259931
-1.09046e-06
-2.03282e-06
0.0266003
1.28823e-06
0.0266005
1.88613e-06
0.0266007
-1.289e-06
-1.88543e-06
0.0272192
1.43206e-06
0.0272193
1.85243e-06
0.0272194
-1.43284e-06
-1.85172e-06
0.0278496
1.49157e-06
0.0278495
1.95733e-06
0.0278496
-1.49236e-06
-1.95661e-06
0.0284917
1.45293e-06
0.0284914
2.19701e-06
0.0284914
-1.45372e-06
-2.19629e-06
0.0291455
1.32323e-06
0.0291452
2.54179e-06
0.029145
-1.32401e-06
-2.54106e-06
0.0298113
1.1228e-06
0.0298109
2.91498e-06
0.0298107
-1.12359e-06
-2.91426e-06
0.0304893
8.59033e-07
0.030489
3.16344e-06
0.0304887
-8.59808e-07
-3.16272e-06
0.0311796
5.18185e-07
0.0311796
3.14962e-06
0.0311792
-5.18949e-07
-3.14891e-06
0.0318824
2.73996e-07
0.0318824
3.10688e-06
0.0318822
-2.74741e-07
-3.10619e-06
0.0325978
2.86234e-07
0.0325976
3.3387e-06
0.0325976
-2.86959e-07
-3.33803e-06
0.0333258
3.59698e-07
0.0333256
3.59425e-06
0.0333257
-3.6041e-07
-3.59359e-06
0.0340665
3.75577e-07
0.0340665
3.58184e-06
0.0340665
-3.7628e-07
-3.58119e-06
0.0348199
4.2082e-07
0.0348202
3.34816e-06
0.0348202
-4.21503e-07
-3.34752e-06
0.0355862
5.13419e-07
0.0355866
2.98451e-06
0.0355867
-5.14064e-07
-2.98391e-06
0.0363654
6.13584e-07
0.0363658
2.62224e-06
0.0363659
-6.14163e-07
-2.62171e-06
0.0371574
6.65119e-07
0.0371576
2.35837e-06
0.0371577
-6.65611e-07
-2.35792e-06
0.0379619
6.18196e-07
0.0379621
2.17047e-06
0.0379621
-6.18588e-07
-2.17012e-06
0.0387789
4.5365e-07
0.038779
2.03893e-06
0.0387789
-4.53936e-07
-2.03867e-06
0.0396078
1.81663e-07
0.0396079
1.9605e-06
0.0396076
-1.81855e-07
-1.96034e-06
0.0404482
-1.60361e-07
0.0404482
1.8808e-06
0.0404479
1.60216e-07
-1.88068e-06
0.0412992
-5.11855e-07
0.0412994
1.65382e-06
0.0412991
5.11697e-07
-1.65369e-06
0.0421598
-6.57094e-07
0.0421601
1.36126e-06
0.04216
6.56877e-07
-1.36107e-06
0.0430285
-6.66e-07
0.0430289
9.72446e-07
0.0430289
6.65708e-07
-9.72172e-07
0.0439031
-6.31177e-07
0.0439035
5.88825e-07
0.0439035
6.3086e-07
-5.88523e-07
0.0447809
-4.77692e-07
0.0447809
5.52995e-07
0.0447811
4.77368e-07
-5.52683e-07
0.0456584
-3.89745e-07
0.0456584
5.55793e-07
0.0456584
3.89325e-07
-5.55383e-07
0.0465311
-3.77175e-07
0.0465313
3.20107e-07
0.0465314
3.76613e-07
-3.19552e-07
0.047394
-3.5403e-07
0.0473944
-2.91837e-08
0.0473944
3.53397e-07
2.98118e-08
0.0482409
-2.50206e-07
0.0482411
-2.35569e-07
0.0482412
2.49631e-07
2.3614e-07
0.0490648
-9.34673e-08
0.0490648
-2.11457e-07
0.049065
9.30433e-08
2.1188e-07
0.0498585
2.07307e-08
0.0498583
-1.00207e-07
0.0498585
-2.09543e-08
1.0043e-07
0.050615
0.0506149
0.0506149
)
;

boundaryField
{
    inlet
    {
        type            cyclic;
        value           nonuniform List<scalar> 
100
(
-0.050615
-0.0498586
-0.049065
-0.048241
-0.047394
-0.0465311
-0.0456584
-0.0447811
-0.0439031
-0.0430285
-0.0421597
-0.0412988
-0.0404478
-0.0396075
-0.0387787
-0.0379619
-0.0371574
-0.0363655
-0.0355863
-0.03482
-0.0340665
-0.0333259
-0.0325978
-0.0318821
-0.0311792
-0.030489
-0.0298111
-0.0291454
-0.0284916
-0.0278497
-0.0272194
-0.0266005
-0.0259929
-0.0253965
-0.0248109
-0.0242362
-0.023672
-0.0231182
-0.0225746
-0.022041
-0.0215173
-0.0210033
-0.0204987
-0.0200035
-0.0195175
-0.0190404
-0.0185722
-0.0181125
-0.0176614
-0.0172185
-0.0167837
-0.0163568
-0.0159376
-0.0155259
-0.0151215
-0.0147242
-0.0143337
-0.0139499
-0.0135724
-0.0132011
-0.0128355
-0.0124749
-0.0121187
-0.0117665
-0.0114181
-0.0110728
-0.0107302
-0.0103902
-0.0100525
-0.00971671
-0.00938264
-0.00904986
-0.00871796
-0.00838652
-0.00805514
-0.00772343
-0.00739103
-0.00705764
-0.006723
-0.00638691
-0.00604861
-0.00570723
-0.0053628
-0.00501599
-0.00466778
-0.00431947
-0.00397257
-0.00362869
-0.00328944
-0.00295631
-0.00263058
-0.00231328
-0.00200513
-0.00170657
-0.0014178
-0.00113884
-0.000869569
-0.00060981
-0.000359338
-0.000117923
)
;
    }
    outlet
    {
        type            cyclic;
        value           nonuniform List<scalar> 
100
(
0.050615
0.0498586
0.049065
0.048241
0.047394
0.0465311
0.0456584
0.0447811
0.0439031
0.0430285
0.0421597
0.0412988
0.0404478
0.0396075
0.0387787
0.0379619
0.0371574
0.0363655
0.0355863
0.03482
0.0340665
0.0333259
0.0325978
0.0318821
0.0311792
0.030489
0.0298111
0.0291454
0.0284916
0.0278497
0.0272194
0.0266005
0.0259929
0.0253965
0.0248109
0.0242362
0.023672
0.0231182
0.0225746
0.022041
0.0215173
0.0210033
0.0204987
0.0200035
0.0195175
0.0190404
0.0185722
0.0181125
0.0176614
0.0172185
0.0167837
0.0163568
0.0159376
0.0155259
0.0151215
0.0147242
0.0143337
0.0139499
0.0135724
0.0132011
0.0128355
0.0124749
0.0121187
0.0117665
0.0114181
0.0110728
0.0107302
0.0103902
0.0100525
0.00971671
0.00938264
0.00904986
0.00871796
0.00838652
0.00805514
0.00772343
0.00739103
0.00705764
0.006723
0.00638691
0.00604861
0.00570723
0.0053628
0.00501599
0.00466778
0.00431947
0.00397257
0.00362869
0.00328944
0.00295631
0.00263058
0.00231328
0.00200513
0.00170657
0.0014178
0.00113884
0.000869569
0.00060981
0.000359338
0.000117923
)
;
    }
    fixedWalls-bottom
    {
        type            calculated;
        value           uniform 0;
    }
    fixedWalls-top
    {
        type            symmetry;
        value           uniform 0;
    }
    frontAndBack
    {
        type            empty;
        value           nonuniform List<scalar> 0();
    }
}


// ************************************************************************* //
