/*--------------------------------*- C++ -*----------------------------------*\
  =========                 |
  \\      /  F ield         | OpenFOAM: The Open Source CFD Toolbox
   \\    /   O peration     | Website:  https://openfoam.org
    \\  /    A nd           | Version:  10
     \\/     M anipulation  |
\*---------------------------------------------------------------------------*/
FoamFile
{
    format      ascii;
    class       volVectorField;
    location    "2500";
    object      U;
}
// * * * * * * * * * * * * * * * * * * * * * * * * * * * * * * * * * * * * * //

dimensions      [0 1 -1 0 0 0 0];

internalField   nonuniform List<vector> 
400
(
(0.0127796 -2.2564e-09 0)
(0.0127819 -1.39234e-09 0)
(0.0127816 2.1535e-09 0)
(0.0127796 1.39411e-09 0)
(0.0384007 -2.33464e-08 0)
(0.0384071 -1.8792e-08 0)
(0.0384063 2.31275e-08 0)
(0.0384007 1.87982e-08 0)
(0.064261 -6.25103e-08 0)
(0.0642712 -5.36708e-08 0)
(0.0642702 6.229e-08 0)
(0.0642613 5.36828e-08 0)
(0.0903597 -1.1875e-07 0)
(0.0903735 -1.06655e-07 0)
(0.0903724 1.18539e-07 0)
(0.0903605 1.06673e-07 0)
(0.116694 -1.89643e-07 0)
(0.116711 -1.77128e-07 0)
(0.11671 1.8943e-07 0)
(0.116696 1.77152e-07 0)
(0.143259 -2.7322e-07 0)
(0.143279 -2.64636e-07 0)
(0.143278 2.73003e-07 0)
(0.143261 2.64666e-07 0)
(0.170038 -3.67885e-07 0)
(0.170061 -3.68701e-07 0)
(0.170061 3.67663e-07 0)
(0.170042 3.68738e-07 0)
(0.197008 -4.72292e-07 0)
(0.197033 -4.88581e-07 0)
(0.197033 4.72067e-07 0)
(0.197012 4.88625e-07 0)
(0.224124 -5.85375e-07 0)
(0.224151 -6.23074e-07 0)
(0.224151 5.85145e-07 0)
(0.224129 6.23124e-07 0)
(0.251322 -7.0638e-07 0)
(0.251351 -7.70251e-07 0)
(0.251351 7.06146e-07 0)
(0.251328 7.70308e-07 0)
(0.278514 -8.34875e-07 0)
(0.278545 -9.27156e-07 0)
(0.278544 8.34637e-07 0)
(0.27852 9.27221e-07 0)
(0.30559 -9.70726e-07 0)
(0.305621 -1.08964e-06 0)
(0.30562 9.70483e-07 0)
(0.305595 1.08971e-06 0)
(0.33242 -1.11385e-06 0)
(0.33245 -1.25225e-06 0)
(0.332449 1.1136e-06 0)
(0.332424 1.25233e-06 0)
(0.358863 -1.26414e-06 0)
(0.358892 -1.40912e-06 0)
(0.35889 1.26389e-06 0)
(0.358865 1.40921e-06 0)
(0.384776 -1.42093e-06 0)
(0.384804 -1.55488e-06 0)
(0.384801 1.42067e-06 0)
(0.384776 1.55497e-06 0)
(0.410022 -1.58278e-06 0)
(0.410048 -1.68649e-06 0)
(0.410044 1.58251e-06 0)
(0.410019 1.6866e-06 0)
(0.434483 -1.74719e-06 0)
(0.434506 -1.80474e-06 0)
(0.434503 1.74692e-06 0)
(0.434478 1.80485e-06 0)
(0.458065 -1.90925e-06 0)
(0.458086 -1.91341e-06 0)
(0.458083 1.90898e-06 0)
(0.458059 1.91353e-06 0)
(0.480705 -2.06224e-06 0)
(0.480725 -2.02075e-06 0)
(0.480723 2.06196e-06 0)
(0.4807 2.02087e-06 0)
(0.502373 -2.19844e-06 0)
(0.502391 -2.13622e-06 0)
(0.502392 2.19816e-06 0)
(0.502371 2.13635e-06 0)
(0.523093 -2.32103e-06 0)
(0.523111 -2.25185e-06 0)
(0.523113 2.32075e-06 0)
(0.523093 2.252e-06 0)
(0.542963 -2.42958e-06 0)
(0.54298 -2.36997e-06 0)
(0.542981 2.42929e-06 0)
(0.542963 2.37011e-06 0)
(0.562063 -2.53213e-06 0)
(0.562078 -2.47837e-06 0)
(0.562079 2.53183e-06 0)
(0.562063 2.47852e-06 0)
(0.580429 -2.62967e-06 0)
(0.580444 -2.57715e-06 0)
(0.580444 2.62937e-06 0)
(0.580429 2.57731e-06 0)
(0.598099 -2.72257e-06 0)
(0.598113 -2.66816e-06 0)
(0.598112 2.72227e-06 0)
(0.598099 2.66833e-06 0)
(0.615112 -2.81169e-06 0)
(0.615126 -2.75269e-06 0)
(0.615125 2.81138e-06 0)
(0.615112 2.75286e-06 0)
(0.631512 -2.89827e-06 0)
(0.631525 -2.8316e-06 0)
(0.631524 2.89796e-06 0)
(0.631512 2.83178e-06 0)
(0.647341 -2.98395e-06 0)
(0.647353 -2.90547e-06 0)
(0.647352 2.98363e-06 0)
(0.647341 2.90566e-06 0)
(0.662642 -3.0708e-06 0)
(0.662654 -2.97432e-06 0)
(0.662651 3.07048e-06 0)
(0.662641 2.97451e-06 0)
(0.677456 -3.16125e-06 0)
(0.677468 -3.03722e-06 0)
(0.677464 3.16092e-06 0)
(0.677455 3.03742e-06 0)
(0.691822 -3.25782e-06 0)
(0.691833 -3.09199e-06 0)
(0.691828 3.25748e-06 0)
(0.691819 3.0922e-06 0)
(0.705774 -3.36254e-06 0)
(0.705786 -3.13492e-06 0)
(0.705779 3.36221e-06 0)
(0.705771 3.13513e-06 0)
(0.719345 -3.476e-06 0)
(0.719355 -3.16052e-06 0)
(0.719347 3.47566e-06 0)
(0.719339 3.16074e-06 0)
(0.732558 -3.59558e-06 0)
(0.732566 -3.16151e-06 0)
(0.732555 3.59523e-06 0)
(0.73255 3.16173e-06 0)
(0.745432 -3.71293e-06 0)
(0.745437 -3.12876e-06 0)
(0.745425 3.71258e-06 0)
(0.745423 3.12899e-06 0)
(0.757987 -3.81148e-06 0)
(0.757988 -3.05146e-06 0)
(0.757974 3.81112e-06 0)
(0.757978 3.0517e-06 0)
(0.770258 -3.86513e-06 0)
(0.770253 -2.92087e-06 0)
(0.770237 3.86476e-06 0)
(0.770252 2.92112e-06 0)
(0.782278 -3.82952e-06 0)
(0.782266 -2.73444e-06 0)
(0.782251 3.82916e-06 0)
(0.782279 2.73474e-06 0)
(0.794068 -3.64662e-06 0)
(0.794049 -2.50322e-06 0)
(0.794036 3.64628e-06 0)
(0.794081 2.50354e-06 0)
(0.80565 -3.29606e-06 0)
(0.805627 -2.24481e-06 0)
(0.805616 3.29566e-06 0)
(0.805679 2.24496e-06 0)
(0.817074 -2.89922e-06 0)
(0.817051 -1.95416e-06 0)
(0.817038 2.89879e-06 0)
(0.817104 1.95434e-06 0)
(0.828381 -2.48488e-06 0)
(0.828359 -1.65307e-06 0)
(0.828343 2.48452e-06 0)
(0.8284 1.65342e-06 0)
(0.839584 -2.18695e-06 0)
(0.839564 -1.33492e-06 0)
(0.839546 2.18656e-06 0)
(0.839595 1.33524e-06 0)
(0.850693 -1.97359e-06 0)
(0.850675 -1.02325e-06 0)
(0.850657 1.97318e-06 0)
(0.850698 1.02355e-06 0)
(0.861717 -1.81309e-06 0)
(0.861701 -7.39096e-07 0)
(0.861685 1.81268e-06 0)
(0.861719 7.394e-07 0)
(0.872664 -1.68318e-06 0)
(0.87265 -4.90655e-07 0)
(0.872637 1.68275e-06 0)
(0.872665 4.90976e-07 0)
(0.883542 -1.56813e-06 0)
(0.88353 -2.80118e-07 0)
(0.88352 1.5677e-06 0)
(0.883543 2.80445e-07 0)
(0.894358 -1.45366e-06 0)
(0.894347 -9.96761e-08 0)
(0.894339 1.45322e-06 0)
(0.89436 1.00011e-07 0)
(0.905118 -1.33083e-06 0)
(0.905107 5.70679e-08 0)
(0.905101 1.33038e-06 0)
(0.905121 -5.67224e-08 0)
(0.915825 -1.1969e-06 0)
(0.915815 1.95672e-07 0)
(0.915811 1.19644e-06 0)
(0.91583 -1.95314e-07 0)
(0.926486 -1.05498e-06 0)
(0.926476 3.22342e-07 0)
(0.926473 1.05451e-06 0)
(0.926492 -3.2197e-07 0)
(0.937103 -9.11999e-07 0)
(0.937093 4.44105e-07 0)
(0.93709 9.11515e-07 0)
(0.937109 -4.43717e-07 0)
(0.947678 -7.75728e-07 0)
(0.94767 5.67538e-07 0)
(0.947665 7.75232e-07 0)
(0.947684 -5.67134e-07 0)
(0.958215 -6.52677e-07 0)
(0.958208 6.97866e-07 0)
(0.958201 6.52167e-07 0)
(0.95822 -6.97445e-07 0)
(0.968715 -5.4654e-07 0)
(0.968709 8.38078e-07 0)
(0.9687 5.46015e-07 0)
(0.968719 -8.3764e-07 0)
(0.979179 -4.58261e-07 0)
(0.979174 9.89424e-07 0)
(0.979164 4.5772e-07 0)
(0.979182 -9.88969e-07 0)
(0.98961 -3.86617e-07 0)
(0.989605 1.15243e-06 0)
(0.989593 3.8606e-07 0)
(0.989612 -1.15195e-06 0)
(1.00001 -3.28526e-07 0)
(1 1.3275e-06 0)
(0.99999 3.27951e-07 0)
(1.00001 -1.32701e-06 0)
(1.01037 -2.78902e-07 0)
(1.01037 1.51491e-06 0)
(1.01035 2.78309e-07 0)
(1.01037 -1.5144e-06 0)
(1.02071 -2.30752e-07 0)
(1.0207 1.71352e-06 0)
(1.02069 2.30141e-07 0)
(1.02071 -1.713e-06 0)
(1.03101 -1.75987e-07 0)
(1.031 1.91851e-06 0)
(1.03099 1.75358e-07 0)
(1.03101 -1.91797e-06 0)
(1.04129 -1.04118e-07 0)
(1.04128 2.11914e-06 0)
(1.04127 1.0347e-07 0)
(1.04128 -2.11859e-06 0)
(1.05153 -1.68742e-09 0)
(1.05152 2.29755e-06 0)
(1.05152 1.0243e-09 0)
(1.05153 -2.297e-06 0)
(1.06175 1.43624e-07 0)
(1.06173 2.43022e-06 0)
(1.06174 -1.44299e-07 0)
(1.06175 -2.42965e-06 0)
(1.07194 3.23234e-07 0)
(1.07192 2.48841e-06 0)
(1.07194 -3.23921e-07 0)
(1.07194 -2.48779e-06 0)
(1.0821 5.28947e-07 0)
(1.08208 2.44107e-06 0)
(1.08211 -5.29687e-07 0)
(1.0821 -2.4405e-06 0)
(1.09223 7.57457e-07 0)
(1.09222 2.31692e-06 0)
(1.09225 -7.58202e-07 0)
(1.09224 -2.31621e-06 0)
(1.10234 9.81219e-07 0)
(1.10233 2.11822e-06 0)
(1.10236 -9.81997e-07 0)
(1.10235 -2.1176e-06 0)
(1.11242 1.20285e-06 0)
(1.11241 1.94997e-06 0)
(1.11243 -1.20363e-06 0)
(1.11243 -1.9492e-06 0)
(1.12247 1.38106e-06 0)
(1.12247 1.85009e-06 0)
(1.12248 -1.38179e-06 0)
(1.12248 -1.84931e-06 0)
(1.1325 1.48668e-06 0)
(1.1325 1.88109e-06 0)
(1.13249 -1.4874e-06 0)
(1.1325 -1.8803e-06 0)
(1.14249 1.49829e-06 0)
(1.1425 2.06047e-06 0)
(1.14247 -1.49902e-06 0)
(1.14249 -2.05968e-06 0)
(1.15245 1.41294e-06 0)
(1.15247 2.37396e-06 0)
(1.15243 -1.4137e-06 0)
(1.15246 -2.37316e-06 0)
(1.16238 1.24006e-06 0)
(1.16241 2.75608e-06 0)
(1.16236 -1.24093e-06 0)
(1.16239 -2.75523e-06 0)
(1.17228 9.7876e-07 0)
(1.17232 3.0495e-06 0)
(1.17226 -9.79731e-07 0)
(1.1723 -3.0487e-06 0)
(1.18215 6.39079e-07 0)
(1.1822 3.11872e-06 0)
(1.18215 -6.39791e-07 0)
(1.18217 -3.11849e-06 0)
(1.192 4.22935e-07 0)
(1.19202 3.16388e-06 0)
(1.192 -4.23523e-07 0)
(1.192 -3.16287e-06 0)
(1.20182 2.92872e-07 0)
(1.2018 3.25888e-06 0)
(1.20181 -2.93679e-07 0)
(1.2018 -3.25806e-06 0)
(1.21159 2.61271e-07 0)
(1.21155 3.43156e-06 0)
(1.21157 -2.62027e-07 0)
(1.21155 -3.43158e-06 0)
(1.22128 3.40218e-07 0)
(1.22126 3.60626e-06 0)
(1.22128 -3.40914e-07 0)
(1.22126 -3.60549e-06 0)
(1.23093 3.89426e-07 0)
(1.23092 3.50195e-06 0)
(1.23095 -3.90126e-07 0)
(1.23092 -3.50124e-06 0)
(1.24053 4.612e-07 0)
(1.24052 3.17253e-06 0)
(1.24055 -4.61957e-07 0)
(1.24052 -3.17219e-06 0)
(1.25006 5.7243e-07 0)
(1.25005 2.81802e-06 0)
(1.25008 -5.73088e-07 0)
(1.25006 -2.81726e-06 0)
(1.25952 6.57914e-07 0)
(1.25952 2.48535e-06 0)
(1.25954 -6.5843e-07 0)
(1.25952 -2.48472e-06 0)
(1.26889 6.65617e-07 0)
(1.2689 2.2545e-06 0)
(1.26891 -6.66012e-07 0)
(1.26889 -2.25392e-06 0)
(1.27817 5.61324e-07 0)
(1.27819 2.10817e-06 0)
(1.27818 -5.61579e-07 0)
(1.27817 -2.10763e-06 0)
(1.28734 3.32965e-07 0)
(1.28736 2.02313e-06 0)
(1.28734 -3.3316e-07 0)
(1.28734 -2.0226e-06 0)
(1.29636 -5.41681e-09 0)
(1.2964 1.93736e-06 0)
(1.29637 5.12273e-09 0)
(1.29637 -1.93701e-06 0)
(1.30523 -3.82287e-07 0)
(1.30527 1.73656e-06 0)
(1.30524 3.82169e-07 0)
(1.30525 -1.73731e-06 0)
(1.31391 -5.64651e-07 0)
(1.31393 1.54771e-06 0)
(1.31393 5.64602e-07 0)
(1.31392 -1.54706e-06 0)
(1.32234 -7.55764e-07 0)
(1.32235 1.06484e-06 0)
(1.32237 7.55487e-07 0)
(1.32235 -1.0657e-06 0)
(1.33046 -5.98022e-07 0)
(1.33047 8.06072e-07 0)
(1.33049 5.97597e-07 0)
(1.33046 -8.05648e-07 0)
(1.33821 -5.19431e-07 0)
(1.33818 6.08153e-07 0)
(1.33821 5.19203e-07 0)
(1.33819 -6.07306e-07 0)
(1.34545 -4.79623e-07 0)
(1.34543 5.09812e-07 0)
(1.34545 4.79298e-07 0)
(1.34544 -5.09612e-07 0)
(1.3521 -4.18577e-07 0)
(1.35209 4.34468e-07 0)
(1.35211 4.18093e-07 0)
(1.35209 -4.33813e-07 0)
(1.35802 -3.7451e-07 0)
(1.35802 1.31006e-07 0)
(1.35804 3.73724e-07 0)
(1.35802 -1.30852e-07 0)
(1.36307 -2.45414e-07 0)
(1.36307 -1.28497e-07 0)
(1.36308 2.44789e-07 0)
(1.36307 1.29184e-07 0)
(1.36707 -1.36168e-07 0)
(1.36706 -2.41494e-07 0)
(1.36707 1.35768e-07 0)
(1.36707 2.42288e-07 0)
(1.36987 -2.41065e-08 0)
(1.36986 -1.64595e-07 0)
(1.36986 2.38116e-08 0)
(1.36986 1.64972e-07 0)
(1.37131 -1.90985e-09 0)
(1.37131 -5.0888e-08 0)
(1.37131 1.73297e-09 0)
(1.37131 5.09837e-08 0)
)
;

boundaryField
{
    inlet
    {
        type            cyclic;
    }
    outlet
    {
        type            cyclic;
    }
    fixedWalls-bottom
    {
        type            noSlip;
    }
    fixedWalls-top
    {
        type            symmetry;
    }
    frontAndBack
    {
        type            empty;
    }
}


// ************************************************************************* //
