/*--------------------------------*- C++ -*----------------------------------*\
  =========                 |
  \\      /  F ield         | OpenFOAM: The Open Source CFD Toolbox
   \\    /   O peration     | Website:  https://openfoam.org
    \\  /    A nd           | Version:  10
     \\/     M anipulation  |
\*---------------------------------------------------------------------------*/
FoamFile
{
    format      ascii;
    class       volScalarField;
    location    "2500";
    object      k;
}
// * * * * * * * * * * * * * * * * * * * * * * * * * * * * * * * * * * * * * //

dimensions      [0 2 -2 0 0 0 0];

internalField   nonuniform List<scalar> 
400
(
6.03184e-08
6.04129e-08
6.04627e-08
6.04509e-08
1.80957e-06
1.8124e-06
1.8139e-06
1.81354e-06
1.28114e-05
1.28316e-05
1.28421e-05
1.28396e-05
4.65171e-05
4.65905e-05
4.66287e-05
4.66196e-05
0.000119898
0.000120089
0.000120187
0.000120163
0.000251648
0.000252053
0.000252254
0.000252203
0.000459524
0.000460274
0.000460628
0.000460534
0.000756204
0.000757444
0.000757996
0.000757839
0.00114459
0.00114645
0.00114722
0.00114698
0.00161516
0.00161768
0.00161865
0.00161832
0.00214751
0.00215064
0.00215174
0.00215132
0.00271569
0.00271925
0.00272039
0.00271989
0.00329414
0.00329788
0.00329896
0.0032984
0.00386166
0.00386532
0.00386627
0.00386565
0.00440289
0.00440628
0.00440703
0.00440635
0.00490802
0.00491101
0.00491154
0.00491077
0.00537215
0.00537473
0.00537501
0.0053741
0.00579504
0.00579732
0.00579731
0.00579621
0.00617684
0.00617886
0.00617856
0.00617727
0.00651825
0.00652004
0.00651947
0.006518
0.00682065
0.00682225
0.00682145
0.00681983
0.00708594
0.00708737
0.00708639
0.00708468
0.00731632
0.00731761
0.00731649
0.00731476
0.00751421
0.00751537
0.00751417
0.00751246
0.00768207
0.00768313
0.00768189
0.00768025
0.00782239
0.00782337
0.00782212
0.0078206
0.00793761
0.0079385
0.00793727
0.00793591
0.00803003
0.00803084
0.00802965
0.00802849
0.00810184
0.00810257
0.00810143
0.00810049
0.0081551
0.00815573
0.00815462
0.00815392
0.00819169
0.0081922
0.00819112
0.00819066
0.00821334
0.00821371
0.00821266
0.00821244
0.00822162
0.00822183
0.00822081
0.00822083
0.00821797
0.00821801
0.00821701
0.00821727
0.00820366
0.00820355
0.00820255
0.00820307
0.00817987
0.00817962
0.00817861
0.00817941
0.00814765
0.00814726
0.00814625
0.00814734
0.00810794
0.00810741
0.00810641
0.00810782
0.00806161
0.00806094
0.00805997
0.00806168
0.00800941
0.00800861
0.00800769
0.00800967
0.00795204
0.00795111
0.00795026
0.00795245
0.00789011
0.00788906
0.00788827
0.00789063
0.00782411
0.00782295
0.00782224
0.0078247
0.00775434
0.00775306
0.00775242
0.00775506
0.00768091
0.00767949
0.00767893
0.00768177
0.0076039
0.00760235
0.00760185
0.00760491
0.00752349
0.00752178
0.00752134
0.00752462
0.00743981
0.00743794
0.00743754
0.00744104
0.00735301
0.00735098
0.00735061
0.00735432
0.00726322
0.00726104
0.00726069
0.00726458
0.00717059
0.00716826
0.00716791
0.00717197
0.00707522
0.00707276
0.0070724
0.0070766
0.00697724
0.00697465
0.00697428
0.00697861
0.00687676
0.00687405
0.00687367
0.00687809
0.00677386
0.00677105
0.00677066
0.00677515
0.00666863
0.00666574
0.00666534
0.00666988
0.00656115
0.00655821
0.00655778
0.00656237
0.00645149
0.00644851
0.00644806
0.00645267
0.0063397
0.00633669
0.00633624
0.00634086
0.00622585
0.00622281
0.00622238
0.006227
0.00610997
0.00610692
0.00610652
0.00611112
0.00599211
0.00598904
0.0059887
0.00599327
0.00587232
0.00586922
0.00586896
0.00587349
0.00575063
0.0057475
0.00574731
0.0057518
0.00562705
0.00562392
0.00562379
0.00562823
0.00550162
0.0054985
0.00549843
0.0055028
0.00537435
0.00537125
0.00537123
0.00537551
0.00524527
0.00524219
0.00524221
0.0052464
0.00511437
0.00511134
0.00511137
0.00511548
0.00498169
0.00497871
0.00497871
0.00498275
0.00484722
0.00484431
0.00484425
0.00484822
0.00471099
0.00470817
0.00470798
0.00471191
0.004573
0.00457031
0.00456998
0.00457383
0.00443329
0.00443074
0.00443026
0.004434
0.00429185
0.00428948
0.00428885
0.0042925
0.00414873
0.00414653
0.00414579
0.00414935
0.004004
0.00400194
0.00400118
0.00400462
0.00385773
0.00385573
0.00385507
0.00385834
0.00370998
0.00370803
0.0037075
0.00371058
0.00356086
0.00355892
0.00355855
0.00356136
0.00341039
0.00340851
0.0034083
0.00341075
0.00325866
0.00325693
0.00325677
0.00325892
0.00310583
0.00310429
0.00310412
0.00310602
0.00295208
0.00295072
0.00295057
0.00295226
0.00279767
0.00279643
0.00279633
0.00279787
0.00264286
0.00264164
0.00264168
0.00264313
0.00248802
0.00248674
0.00248689
0.00248836
0.00233358
0.00233224
0.00233239
0.00233389
0.00218009
0.00217868
0.0021788
0.00218014
0.0020282
0.00202676
0.00202673
0.00202776
0.00187871
0.00187746
0.00187717
0.00187801
0.00173287
0.00173192
0.00173144
0.00173213
0.00159234
0.00159164
0.0015911
0.00159167
0.00145906
0.00145853
0.00145803
0.00145856
0.00133541
0.00133496
0.00133459
0.00133516
0.0012242
0.00122379
0.00122358
0.0012243
0.0011288
0.0011284
0.0011283
0.00112909
0.0010528
0.00105241
0.00105235
0.00105317
0.0009997
0.000999354
0.000999266
0.00100016
0.000972316
0.000972085
0.000972001
0.000972974
)
;

boundaryField
{
    inlet
    {
        type            cyclic;
    }
    outlet
    {
        type            cyclic;
    }
    fixedWalls-bottom
    {
        type            kqRWallFunction;
        value           nonuniform List<scalar> 4(6.03184e-08 6.04129e-08 6.04627e-08 6.04509e-08);
    }
    fixedWalls-top
    {
        type            symmetry;
    }
    frontAndBack
    {
        type            empty;
    }
}


// ************************************************************************* //
