/*--------------------------------*- C++ -*----------------------------------*\
  =========                 |
  \\      /  F ield         | OpenFOAM: The Open Source CFD Toolbox
   \\    /   O peration     | Website:  https://openfoam.org
    \\  /    A nd           | Version:  10
     \\/     M anipulation  |
\*---------------------------------------------------------------------------*/
FoamFile
{
    format      ascii;
    class       volScalarField;
    location    "2500";
    object      nut;
}
// * * * * * * * * * * * * * * * * * * * * * * * * * * * * * * * * * * * * * //

dimensions      [0 2 -1 0 0 0 0];

internalField   nonuniform List<scalar> 
400
(
7.50126e-12
7.51301e-12
7.51921e-12
7.51774e-12
1.31558e-09
1.31764e-09
1.31873e-09
1.31847e-09
2.76674e-08
2.77108e-08
2.77336e-08
2.77282e-08
2.13127e-07
2.13464e-07
2.1364e-07
2.13597e-07
9.62378e-07
9.63935e-07
9.64723e-07
9.64526e-07
3.12516e-06
3.13046e-06
3.13299e-06
3.13232e-06
8.07275e-06
8.08755e-06
8.09401e-06
8.09213e-06
1.75427e-05
1.75783e-05
1.7592e-05
1.75875e-05
3.32286e-05
3.33036e-05
3.33279e-05
3.33188e-05
5.63133e-05
5.64517e-05
5.64891e-05
5.64728e-05
8.72404e-05
8.74651e-05
8.75152e-05
8.74897e-05
0.000125828
0.000126151
0.00012621
0.000126175
0.000171564
0.000171981
0.000172042
0.000171997
0.000223867
0.000224352
0.000224404
0.000224355
0.000282209
0.00028272
0.000282749
0.000282705
0.000346156
0.000346637
0.00034665
0.000346602
0.000410889
0.000411063
0.000411114
0.000411064
0.000478387
0.000478515
0.000478537
0.000478459
0.000549826
0.000549952
0.000549933
0.000549812
0.000625113
0.00062525
0.000625187
0.000625014
0.00070392
0.000704074
0.000703971
0.000703743
0.000785838
0.00078601
0.000785873
0.000785594
0.000870404
0.000870592
0.000870431
0.00087011
0.000957115
0.000957316
0.000957141
0.000956791
0.00104542
0.00104563
0.00104545
0.00104508
0.00113462
0.00113483
0.00113465
0.00113429
0.00122415
0.00122436
0.00122419
0.00122385
0.0013136
0.00131379
0.00131363
0.00131333
0.00140247
0.00140264
0.00140248
0.00140224
0.0014903
0.00149043
0.00149028
0.00149011
0.00157666
0.00157676
0.0015766
0.00157651
0.0016612
0.00166124
0.00166109
0.00166107
0.0017436
0.00174359
0.00174346
0.00174351
0.00182361
0.00182356
0.00182346
0.00182356
0.00190103
0.00190097
0.00190093
0.00190104
0.00197572
0.0019757
0.00197573
0.0019758
0.00204759
0.00204767
0.00204777
0.00204771
0.00211657
0.00211683
0.00211698
0.00211666
0.00218262
0.0021831
0.00218324
0.00218251
0.00224563
0.0022463
0.00224636
0.00224505
0.0023053
0.002306
0.00230589
0.00230399
0.00236078
0.00236125
0.00236094
0.00235878
0.0024097
0.00240965
0.00240931
0.00240846
0.002446
0.00244525
0.00244579
0.0024514
0.00247722
0.00247639
0.00247706
0.00248313
0.00250514
0.00250422
0.00250503
0.0025116
0.00252967
0.00252886
0.00252975
0.00253688
0.00255119
0.00255038
0.00255138
0.00255911
0.00256986
0.00256903
0.00257016
0.00257841
0.0025859
0.00258501
0.00258623
0.002595
0.00259948
0.00259859
0.00259974
0.00260905
0.0026106
0.00261012
0.00261083
0.00262076
0.0026198
0.00261888
0.00261993
0.0026302
0.00262712
0.00262548
0.00262705
0.00263744
0.00263185
0.00263024
0.002632
0.00264263
0.0026348
0.00263319
0.00263468
0.00264589
0.00263586
0.00263431
0.00263524
0.00264713
0.00263455
0.00263293
0.00263401
0.00264632
0.0026312
0.00263
0.00263088
0.00264346
0.00262616
0.00262437
0.00262586
0.00263883
0.00261868
0.00261762
0.00261863
0.00263239
0.00260949
0.00260774
0.00260998
0.002624
0.00259854
0.00259654
0.00259915
0.00261367
0.0025857
0.00258357
0.00258633
0.00260142
0.00257057
0.00256919
0.00257174
0.00258708
0.00255376
0.00255216
0.00255561
0.00257043
0.00253473
0.00253303
0.00253703
0.00255167
0.00251354
0.00251172
0.00251597
0.00253075
0.00249025
0.00248818
0.00249239
0.00250756
0.00246482
0.00246239
0.00246619
0.00248201
0.00243717
0.0024344
0.0024372
0.00245402
0.00240721
0.00240429
0.00240559
0.00242343
0.00237486
0.00237221
0.00237258
0.00238988
0.0023404
0.00233767
0.00233672
0.00235449
0.00230192
0.00230044
0.00229791
0.00231748
0.00226172
0.00226031
0.00225778
0.00227788
0.00221935
0.00221736
0.00221602
0.0022356
0.00217451
0.00217105
0.00217244
0.00219046
0.00212677
0.00212403
0.00212501
0.00214217
0.00207767
0.00207285
0.0020763
0.00208931
0.00202331
0.00202004
0.00202351
0.00203349
0.00196632
0.00196547
0.00196579
0.00197575
0.00190663
0.00190602
0.00190599
0.00191573
0.00184405
0.00184311
0.00184369
0.00185335
0.00177845
0.00177646
0.0017785
0.00178859
0.0017097
0.00170485
0.0017098
0.00172138
0.00163801
0.00163205
0.0016363
0.00165111
0.0015638
0.00155616
0.00156069
0.00157613
0.00148709
0.00147743
0.00148223
0.00149605
0.00140764
0.00139847
0.00139887
0.00141426
0.00132327
0.00131841
0.00131647
0.00133161
0.00124013
0.00123712
0.00123474
0.00124886
0.00115834
0.0011563
0.00115422
0.00116716
0.00107868
0.00107757
0.001076
0.00108787
0.00100279
0.00100268
0.00100171
0.00101276
0.000933123
0.00093398
0.000933589
0.00094418
0.00087297
0.000874719
0.00087456
0.000884915
0.000826212
0.000828624
0.000828252
0.000838503
0.000796856
0.000797518
0.000799619
0.000810167
0.000783825
0.00079129
0.000794101
0.000804934
)
;

boundaryField
{
    inlet
    {
        type            cyclic;
    }
    outlet
    {
        type            cyclic;
    }
    fixedWalls-bottom
    {
        type            nutkWallFunction;
        Cmu             0.09;
        kappa           0.41;
        E               9.8;
        value           uniform 0;
    }
    fixedWalls-top
    {
        type            symmetry;
    }
    frontAndBack
    {
        type            empty;
    }
}


// ************************************************************************* //
