/*--------------------------------*- C++ -*----------------------------------*\
  =========                 |
  \\      /  F ield         | OpenFOAM: The Open Source CFD Toolbox
   \\    /   O peration     | Website:  https://openfoam.org
    \\  /    A nd           | Version:  10
     \\/     M anipulation  |
\*---------------------------------------------------------------------------*/
FoamFile
{
    format      ascii;
    class       volScalarField;
    location    "2500";
    object      p;
}
// * * * * * * * * * * * * * * * * * * * * * * * * * * * * * * * * * * * * * //

dimensions      [0 2 -2 0 0 0 0];

internalField   nonuniform List<scalar> 
400
(
2.12573e-10
-3.34773e-07
-7.47933e-07
-3.95742e-07
1.88322e-09
-3.37329e-07
-7.4895e-07
-3.93184e-07
3.26893e-09
-3.40322e-07
-7.50204e-07
-3.90194e-07
4.56817e-09
-3.43229e-07
-7.51536e-07
-3.87292e-07
6.04875e-09
-3.46021e-07
-7.53023e-07
-3.84505e-07
7.80776e-09
-3.48599e-07
-7.54763e-07
-3.81933e-07
9.92071e-09
-3.50627e-07
-7.56847e-07
-3.79913e-07
1.24441e-08
-3.51361e-07
-7.59343e-07
-3.79188e-07
1.54724e-08
-3.49559e-07
-7.62345e-07
-3.81002e-07
1.91316e-08
-3.43543e-07
-7.65979e-07
-3.87029e-07
2.36534e-08
-3.31729e-07
-7.70472e-07
-3.98858e-07
2.93332e-08
-3.13266e-07
-7.76121e-07
-4.17337e-07
3.65301e-08
-2.88608e-07
-7.83282e-07
-4.42012e-07
4.55687e-08
-2.59536e-07
-7.92283e-07
-4.71102e-07
5.66981e-08
-2.28928e-07
-8.03373e-07
-5.01727e-07
6.97203e-08
-2.00587e-07
-8.1636e-07
-5.30087e-07
8.34993e-08
-1.80801e-07
-8.30105e-07
-5.49892e-07
9.88473e-08
-1.69906e-07
-8.45418e-07
-5.60808e-07
1.18329e-07
-1.62483e-07
-8.64862e-07
-5.68252e-07
1.42842e-07
-1.5661e-07
-8.89336e-07
-5.74147e-07
1.72334e-07
-1.51993e-07
-9.18787e-07
-5.78788e-07
2.06303e-07
-1.48363e-07
-9.52713e-07
-5.82443e-07
2.44087e-07
-1.45416e-07
-9.90453e-07
-5.85414e-07
2.84863e-07
-1.42791e-07
-1.03118e-06
-5.88064e-07
3.27816e-07
-1.40285e-07
-1.07409e-06
-5.90594e-07
3.7216e-07
-1.37789e-07
-1.11838e-06
-5.93114e-07
4.17287e-07
-1.35434e-07
-1.16346e-06
-5.95494e-07
4.6267e-07
-1.33347e-07
-1.2088e-06
-5.97606e-07
5.0795e-07
-1.31807e-07
-1.25403e-06
-5.99172e-07
5.52937e-07
-1.31076e-07
-1.29896e-06
-5.9993e-07
5.97602e-07
-1.31508e-07
-1.34357e-06
-5.99525e-07
6.41972e-07
-1.33244e-07
-1.38789e-06
-5.97817e-07
6.86093e-07
-1.36268e-07
-1.43196e-06
-5.94821e-07
7.30072e-07
-1.40063e-07
-1.47589e-06
-5.91056e-07
7.74055e-07
-1.43761e-07
-1.51981e-06
-5.87389e-07
8.18326e-07
-1.45993e-07
-1.56403e-06
-5.85189e-07
8.63795e-07
-1.45315e-07
-1.60945e-06
-5.85903e-07
9.13588e-07
-1.40455e-07
-1.65919e-06
-5.90789e-07
9.74482e-07
-1.315e-07
-1.72004e-06
-5.99746e-07
1.05554e-06
-1.20644e-07
-1.80106e-06
-6.10578e-07
1.15875e-06
-1.1238e-07
-1.90422e-06
-6.18835e-07
1.26546e-06
-1.10727e-07
-2.01087e-06
-6.20568e-07
1.33632e-06
-1.15715e-07
-2.08168e-06
-6.15769e-07
1.3477e-06
-1.23623e-07
-2.09301e-06
-6.08057e-07
1.3186e-06
-1.3202e-07
-2.06387e-06
-5.99781e-07
1.27382e-06
-1.40306e-07
-2.01906e-06
-5.91553e-07
1.21965e-06
-1.4735e-07
-1.96484e-06
-5.84549e-07
1.15694e-06
-1.52378e-07
-1.90209e-06
-5.79554e-07
1.08578e-06
-1.56113e-07
-1.83087e-06
-5.75849e-07
1.00686e-06
-1.59398e-07
-1.75189e-06
-5.7259e-07
9.223e-07
-1.6343e-07
-1.66727e-06
-5.68579e-07
8.35018e-07
-1.68711e-07
-1.57992e-06
-5.63317e-07
7.43446e-07
-1.75837e-07
-1.48829e-06
-5.56216e-07
6.43869e-07
-1.85409e-07
-1.38864e-06
-5.46668e-07
5.37887e-07
-1.95237e-07
-1.28259e-06
-5.36869e-07
4.28359e-07
-2.06272e-07
-1.17299e-06
-5.25862e-07
3.17646e-07
-2.23536e-07
-1.0622e-06
-5.08616e-07
2.04117e-07
-2.44635e-07
-9.48594e-07
-4.87528e-07
8.75601e-08
-2.64265e-07
-8.31962e-07
-4.67916e-07
-3.48745e-08
-2.82297e-07
-7.09452e-07
-4.49906e-07
-1.65547e-07
-2.98187e-07
-5.78707e-07
-4.34039e-07
-3.09053e-07
-3.08526e-07
-4.35131e-07
-4.23726e-07
-4.68697e-07
-3.14643e-07
-2.75414e-07
-4.17631e-07
-6.38956e-07
-3.19984e-07
-1.0508e-07
-4.12291e-07
-8.12668e-07
-3.2144e-07
6.87066e-08
-4.10836e-07
-9.87655e-07
-3.13789e-07
2.43771e-07
-4.18518e-07
-1.16618e-06
-2.97309e-07
4.22379e-07
-4.35069e-07
-1.34914e-06
-2.762e-07
6.05425e-07
-4.56279e-07
-1.53622e-06
-2.56239e-07
7.9259e-07
-4.76354e-07
-1.72682e-06
-2.44456e-07
9.8325e-07
-4.8824e-07
-1.91826e-06
-2.49175e-07
1.17474e-06
-4.83582e-07
-2.10428e-06
-2.75849e-07
1.3608e-06
-4.56914e-07
-2.27399e-06
-3.20108e-07
1.53056e-06
-4.12641e-07
-2.42552e-06
-3.79263e-07
1.68217e-06
-3.53462e-07
-2.57105e-06
-4.50391e-07
1.8278e-06
-2.82292e-07
-2.72207e-06
-5.23481e-07
1.97891e-06
-2.09143e-07
-2.88354e-06
-5.90144e-07
2.14045e-06
-1.42413e-07
-3.05867e-06
-6.43144e-07
2.31563e-06
-8.9375e-08
-3.23317e-06
-6.8486e-07
2.49018e-06
-4.76765e-08
-3.38598e-06
-7.19578e-07
2.64305e-06
-1.30488e-08
-3.50284e-06
-7.41068e-07
2.75998e-06
8.25886e-09
-3.57569e-06
-7.5653e-07
2.83289e-06
2.35173e-08
-3.62131e-06
-7.7714e-07
2.87857e-06
4.39612e-08
-3.6664e-06
-7.97531e-07
2.92372e-06
6.4196e-08
-3.7314e-06
-8.12399e-07
2.98878e-06
7.88747e-08
-3.84037e-06
-8.24869e-07
3.09781e-06
9.11476e-08
-3.99485e-06
-8.48855e-07
3.25235e-06
1.15043e-07
-4.17035e-06
-8.92121e-07
3.42787e-06
1.5838e-07
-4.3391e-06
-9.56106e-07
3.59661e-06
2.2253e-07
-4.47707e-06
-1.04965e-06
3.73461e-06
3.1627e-07
-4.58014e-06
-1.14898e-06
3.8378e-06
4.15678e-07
-4.66042e-06
-1.22476e-06
3.91821e-06
4.91384e-07
-4.72784e-06
-1.27983e-06
3.98571e-06
5.46326e-07
-4.78684e-06
-1.31754e-06
4.04475e-06
5.83918e-07
-4.83988e-06
-1.33831e-06
4.09782e-06
6.04587e-07
-4.88808e-06
-1.34393e-06
4.14604e-06
6.10114e-07
-4.92991e-06
-1.33924e-06
4.18791e-06
6.05356e-07
-4.96289e-06
-1.3303e-06
4.22093e-06
5.96381e-07
-4.98987e-06
-1.32067e-06
4.24797e-06
5.86728e-07
-5.01132e-06
-1.30949e-06
4.2695e-06
5.75513e-07
)
;

boundaryField
{
    inlet
    {
        type            cyclic;
    }
    outlet
    {
        type            cyclic;
    }
    fixedWalls-bottom
    {
        type            zeroGradient;
    }
    fixedWalls-top
    {
        type            symmetry;
    }
    frontAndBack
    {
        type            empty;
    }
}


// ************************************************************************* //
