/*--------------------------------*- C++ -*----------------------------------*\
  =========                 |
  \\      /  F ield         | OpenFOAM: The Open Source CFD Toolbox
   \\    /   O peration     | Website:  https://openfoam.org
    \\  /    A nd           | Version:  10
     \\/     M anipulation  |
\*---------------------------------------------------------------------------*/
FoamFile
{
    format      ascii;
    class       surfaceScalarField;
    location    "2500";
    object      phi;
}
// * * * * * * * * * * * * * * * * * * * * * * * * * * * * * * * * * * * * * //

dimensions      [0 3 -1 0 0 0 0];

internalField   nonuniform List<scalar> 
696
(
0.000167348
1.25874e-11
0.00016736
-1.20069e-08
0.000167364
-4.51957e-09
1.20303e-08
0.000509979
1.4301e-08
0.000510016
-4.87499e-08
0.00051003
-1.87533e-08
4.88094e-08
0.000865481
3.90558e-08
0.000865544
-1.11492e-07
0.000865569
-4.34036e-08
1.11587e-07
0.00123412
7.44989e-08
0.00123421
-2.01695e-07
0.00123424
-7.87888e-08
2.01824e-07
0.00161596
1.20572e-07
0.00161608
-3.21125e-07
0.00161613
-1.24759e-07
3.21286e-07
0.00201065
1.76165e-07
0.0020108
-4.71356e-07
0.00201085
-1.8029e-07
4.71549e-07
0.00241698
2.39035e-07
0.00241716
-6.52892e-07
0.00241722
-2.43059e-07
6.53114e-07
0.00283262
3.04962e-07
0.00283283
-8.63209e-07
0.0028329
-3.08921e-07
8.63459e-07
0.00325405
3.68005e-07
0.00325428
-1.09477e-06
0.00325434
-3.71867e-07
1.09505e-06
0.003677
4.20712e-07
0.00367724
-1.33367e-06
0.00367729
-4.24512e-07
1.33397e-06
0.0040972
4.55737e-07
0.00409743
-1.56128e-06
0.00409746
-4.59447e-07
1.5616e-06
0.00451112
4.66992e-07
0.00451132
-1.75811e-06
0.00451133
-4.70644e-07
1.75845e-06
0.00491628
4.51157e-07
0.00491643
-1.90909e-06
0.00491642
-4.54728e-07
1.90946e-06
0.00531129
4.07811e-07
0.00531139
-2.00713e-06
0.00531135
-4.1133e-07
2.00751e-06
0.00569559
3.39496e-07
0.00569564
-2.05516e-06
0.00569557
-3.42943e-07
2.05555e-06
0.00606924
2.50514e-07
0.00606925
-2.0633e-06
0.00606916
-2.53914e-07
2.0637e-06
0.00643335
1.42017e-07
0.00643335
-2.05849e-06
0.00643324
-1.45353e-07
2.05891e-06
0.00678933
1.76298e-08
0.00678934
-2.06236e-06
0.00678921
-2.09243e-08
2.06279e-06
0.00713797
-1.13093e-07
0.00713799
-2.07722e-06
0.00713786
1.09856e-07
2.07766e-06
0.00747991
-2.41459e-07
0.00747994
-2.10153e-06
0.00747981
2.3826e-07
2.10199e-06
0.00781582
-3.60619e-07
0.00781585
-2.13267e-06
0.00781573
3.57472e-07
2.13313e-06
0.00814639
-4.66264e-07
0.00814642
-2.16747e-06
0.00814632
4.6315e-07
2.16794e-06
0.00847233
-5.56233e-07
0.00847236
-2.20309e-06
0.00847227
5.53168e-07
2.20356e-06
0.00879433
-6.30445e-07
0.00879437
-2.23685e-06
0.00879429
6.2741e-07
2.23733e-06
0.0091131
-6.90188e-07
0.00911313
-2.26675e-06
0.00911307
6.87197e-07
2.26724e-06
0.0094293
-7.37875e-07
0.00942932
-2.29127e-06
0.00942927
7.34913e-07
2.29177e-06
0.00974358
-7.76289e-07
0.0097436
-2.30984e-06
0.00974356
7.73367e-07
2.31034e-06
0.0100566
-8.0852e-07
0.0100566
-2.32238e-06
0.0100565
8.05624e-07
2.32289e-06
0.0103688
-8.37527e-07
0.0103688
-2.32948e-06
0.0103688
8.3467e-07
2.32999e-06
0.0106809
-8.66051e-07
0.0106809
-2.33203e-06
0.0106809
8.63218e-07
2.33254e-06
0.0109933
-8.9637e-07
0.0109933
-2.33132e-06
0.0109932
8.93573e-07
2.33184e-06
0.0113064
-9.30432e-07
0.0113064
-2.32842e-06
0.0113064
9.27659e-07
2.32895e-06
0.0116208
-9.69937e-07
0.0116208
-2.32396e-06
0.0116207
9.67198e-07
2.32449e-06
0.0119368
-1.01627e-06
0.0119368
-2.31734e-06
0.0119367
1.01356e-06
2.31787e-06
0.0122548
-1.07033e-06
0.0122548
-2.30632e-06
0.0122547
1.06765e-06
2.30686e-06
0.0125751
-1.13178e-06
0.0125751
-2.28641e-06
0.012575
1.12911e-06
2.28695e-06
0.0128981
-1.19798e-06
0.0128981
-2.25087e-06
0.012898
1.19535e-06
2.25141e-06
0.0132242
-1.26198e-06
0.0132241
-2.19103e-06
0.013224
1.25937e-06
2.19157e-06
0.0135534
-1.31085e-06
0.0135533
-2.09797e-06
0.0135533
1.30827e-06
2.09851e-06
0.0138863
-1.32414e-06
0.0138861
-1.96501e-06
0.0138861
1.32158e-06
1.96556e-06
0.0142229
-1.27586e-06
0.0142227
-1.7915e-06
0.0142228
1.27333e-06
1.79205e-06
0.0145636
-1.14112e-06
0.0145634
-1.58558e-06
0.0145636
1.13862e-06
1.58613e-06
0.0149089
-9.15376e-07
0.0149086
-1.36404e-06
0.0149089
9.12899e-07
1.36459e-06
0.0152591
-6.76023e-07
0.0152588
-1.14066e-06
0.0152591
6.73566e-07
1.14121e-06
0.0156147
-4.89425e-07
0.0156145
-9.2326e-07
0.0156147
4.86999e-07
9.23812e-07
0.0159761
-3.46555e-07
0.0159759
-7.1859e-07
0.015976
3.44149e-07
7.19143e-07
0.0163433
-2.39775e-07
0.0163432
-5.29541e-07
0.0163433
2.37399e-07
5.30094e-07
0.0167167
-1.63846e-07
0.0167165
-3.56001e-07
0.0167166
1.61492e-07
3.56556e-07
0.0170964
-1.14557e-07
0.0170962
-1.97348e-07
0.0170963
1.12232e-07
1.97902e-07
0.0174825
-8.85635e-08
0.0174824
-5.23606e-08
0.0174824
8.62605e-08
5.29159e-08
0.0178753
-8.08828e-08
0.0178752
7.97209e-08
0.0178752
7.86104e-08
-7.9166e-08
0.0182749
-8.34437e-08
0.0182748
2.00095e-07
0.0182748
8.11933e-08
-1.9954e-07
0.0186815
-9.02758e-08
0.0186814
3.09975e-07
0.0186814
8.80566e-08
-3.09421e-07
0.0190952
-1.02587e-07
0.0190951
4.08856e-07
0.0190951
1.00391e-07
-4.08302e-07
0.0195163
-1.18352e-07
0.0195162
5.00179e-07
0.0195162
1.16187e-07
-4.99627e-07
0.0199447
-1.33306e-07
0.0199447
5.87063e-07
0.0199446
1.31165e-07
-5.86511e-07
0.0203808
-1.38302e-07
0.0203807
6.6359e-07
0.0203807
1.36193e-07
-6.63041e-07
0.0208246
-1.28736e-07
0.0208245
7.26834e-07
0.0208245
1.26652e-07
-7.26286e-07
0.0212763
-9.841e-08
0.0212762
7.8078e-07
0.0212763
9.63591e-08
-7.80235e-07
0.021736
-4.74777e-08
0.021736
8.26216e-07
0.021736
4.54522e-08
-8.25672e-07
0.0222039
2.20039e-08
0.0222039
8.61714e-07
0.022204
-2.39952e-08
-8.61174e-07
0.0226802
1.00044e-07
0.0226802
8.90108e-07
0.0226802
-1.02009e-07
-8.89571e-07
0.0231649
1.70089e-07
0.0231649
9.10934e-07
0.0231649
-1.72018e-07
-9.104e-07
0.0236582
2.22458e-07
0.0236582
9.17345e-07
0.0236583
-2.24359e-07
-9.16815e-07
0.0241602
2.57251e-07
0.0241602
9.09162e-07
0.0241603
-2.59116e-07
-9.08637e-07
0.0246711
2.74888e-07
0.0246711
8.96952e-07
0.0246712
-2.76722e-07
-8.96431e-07
0.025191
2.70995e-07
0.025191
8.92572e-07
0.025191
-2.72791e-07
-8.92058e-07
0.0257201
2.39117e-07
0.02572
9.0443e-07
0.02572
-2.4088e-07
-9.03921e-07
0.0262584
1.75201e-07
0.0262583
9.35889e-07
0.0262583
-1.76924e-07
-9.35388e-07
0.026806
7.65653e-08
0.026806
9.84157e-07
0.0268059
-7.82541e-08
-9.83662e-07
0.0273632
-5.23952e-08
0.0273632
1.03781e-06
0.0273631
5.0748e-08
-1.03732e-06
0.0279301
-1.98738e-07
0.02793
1.07812e-06
0.0279299
1.97126e-07
-1.07764e-06
0.0285066
-3.2829e-07
0.0285066
1.09909e-06
0.0285065
3.2672e-07
-1.09861e-06
0.029093
-4.03642e-07
0.029093
1.09573e-06
0.0290929
4.02107e-07
-1.09526e-06
0.0296893
-4.1308e-07
0.0296893
1.0565e-06
0.0296893
4.11587e-07
-1.05604e-06
0.0302956
-3.71927e-07
0.0302957
9.78433e-07
0.0302958
3.7047e-07
-9.77974e-07
0.0309121
-3.08273e-07
0.0309122
8.60123e-07
0.0309122
3.06859e-07
-8.59672e-07
0.0315386
-2.73271e-07
0.0315388
7.12335e-07
0.0315388
2.71896e-07
-7.11889e-07
0.0321753
-2.96935e-07
0.0321755
5.44814e-07
0.0321755
2.95608e-07
-5.44378e-07
0.0328222
-3.7266e-07
0.0328224
3.64728e-07
0.0328223
3.71377e-07
-3.643e-07
0.0334793
-4.71288e-07
0.0334794
2.15765e-07
0.0334793
4.70058e-07
-2.15351e-07
0.0341465
-5.30358e-07
0.0341466
1.33733e-07
0.0341465
5.29178e-07
-1.3333e-07
0.0348238
-5.0953e-07
0.0348238
1.19159e-07
0.0348239
5.08405e-07
-1.1877e-07
0.0355111
-4.13638e-07
0.035511
1.76117e-07
0.0355111
4.12568e-07
-1.7574e-07
0.0362082
-2.66023e-07
0.036208
3.02091e-07
0.0362082
2.65011e-07
-3.0173e-07
0.0369149
-1.41113e-07
0.0369147
4.78476e-07
0.0369148
1.40157e-07
-4.78125e-07
0.0376309
-1.12925e-07
0.0376307
6.49946e-07
0.0376307
1.12022e-07
-6.49603e-07
0.0383557
-1.93128e-07
0.0383556
7.6314e-07
0.0383555
1.92268e-07
-7.62794e-07
0.0390889
-3.41505e-07
0.0390889
8.04988e-07
0.0390887
3.4068e-07
-8.0463e-07
0.0398298
-4.68761e-07
0.0398299
7.30356e-07
0.0398297
4.67957e-07
-7.29971e-07
0.0405774
-5.05003e-07
0.0405775
5.60308e-07
0.0405775
5.04222e-07
-5.59896e-07
0.0413304
-4.5062e-07
0.0413306
3.92209e-07
0.0413306
4.49868e-07
-3.91778e-07
0.0420872
-3.40704e-07
0.0420873
2.5928e-07
0.0420874
3.39991e-07
-2.58837e-07
0.0428454
-2.09634e-07
0.0428455
1.64553e-07
0.0428457
2.08972e-07
-1.64112e-07
0.0436024
-8.52012e-08
0.0436025
1.027e-07
0.0436026
8.46085e-08
-1.02276e-07
0.0443546
9.78234e-09
0.0443547
6.77732e-08
0.0443548
-1.02901e-08
-6.73885e-08
0.0450979
6.59614e-08
0.0450979
5.11851e-08
0.045098
-6.63649e-08
-5.08575e-08
0.0458274
9.53409e-08
0.0458274
3.7513e-08
0.0458274
-9.56257e-08
-3.72555e-08
0.0465379
8.07645e-08
0.0465379
9.27946e-09
0.0465379
-8.09047e-08
-9.13934e-09
0.0472246
0.0472246
0.0472245
)
;

boundaryField
{
    inlet
    {
        type            cyclic;
        value           nonuniform List<scalar> 
100
(
-0.0472245
-0.0465379
-0.0458274
-0.045098
-0.0443547
-0.0436025
-0.0428456
-0.0420873
-0.0413305
-0.0405773
-0.0398297
-0.0390888
-0.0383556
-0.0376309
-0.036915
-0.0362083
-0.0355112
-0.0348238
-0.0341465
-0.0334792
-0.0328222
-0.0321753
-0.0315386
-0.0309121
-0.0302957
-0.0296893
-0.0290929
-0.0285065
-0.0279299
-0.0273631
-0.0268059
-0.0262583
-0.02572
-0.025191
-0.0246712
-0.0241603
-0.0236583
-0.023165
-0.0226803
-0.022204
-0.0217361
-0.0212763
-0.0208246
-0.0203808
-0.0199447
-0.0195163
-0.0190952
-0.0186815
-0.0182749
-0.0178753
-0.0174825
-0.0170964
-0.0167168
-0.0163434
-0.0159762
-0.0156149
-0.0152593
-0.0149091
-0.0145638
-0.014223
-0.0138862
-0.0135534
-0.0132241
-0.0128981
-0.012575
-0.0122547
-0.0119367
-0.0116207
-0.0113064
-0.0109932
-0.0106809
-0.0103688
-0.0100565
-0.00974354
-0.00942925
-0.00911304
-0.00879426
-0.00847224
-0.00814628
-0.0078157
-0.00747978
-0.00713784
-0.00678921
-0.00643324
-0.00606915
-0.00569553
-0.00531125
-0.00491627
-0.00451113
-0.00409724
-0.00367705
-0.00325411
-0.00283268
-0.00241704
-0.0020107
-0.00161601
-0.00123415
-0.000865506
-0.000509993
-0.000167352
)
;
    }
    outlet
    {
        type            cyclic;
        value           nonuniform List<scalar> 
100
(
0.0472245
0.0465379
0.0458274
0.045098
0.0443547
0.0436025
0.0428456
0.0420873
0.0413305
0.0405773
0.0398297
0.0390888
0.0383556
0.0376309
0.036915
0.0362083
0.0355112
0.0348238
0.0341465
0.0334792
0.0328222
0.0321753
0.0315386
0.0309121
0.0302957
0.0296893
0.0290929
0.0285065
0.0279299
0.0273631
0.0268059
0.0262583
0.02572
0.025191
0.0246712
0.0241603
0.0236583
0.023165
0.0226803
0.022204
0.0217361
0.0212763
0.0208246
0.0203808
0.0199447
0.0195163
0.0190952
0.0186815
0.0182749
0.0178753
0.0174825
0.0170964
0.0167168
0.0163434
0.0159762
0.0156149
0.0152593
0.0149091
0.0145638
0.014223
0.0138862
0.0135534
0.0132241
0.0128981
0.012575
0.0122547
0.0119367
0.0116207
0.0113064
0.0109932
0.0106809
0.0103688
0.0100565
0.00974354
0.00942925
0.00911304
0.00879426
0.00847224
0.00814628
0.0078157
0.00747978
0.00713784
0.00678921
0.00643324
0.00606915
0.00569553
0.00531125
0.00491627
0.00451113
0.00409724
0.00367705
0.00325411
0.00283268
0.00241704
0.0020107
0.00161601
0.00123415
0.000865506
0.000509993
0.000167352
)
;
    }
    fixedWalls-bottom
    {
        type            calculated;
        value           uniform 0;
    }
    fixedWalls-top
    {
        type            symmetry;
        value           uniform 0;
    }
    frontAndBack
    {
        type            empty;
        value           nonuniform List<scalar> 0();
    }
}


// ************************************************************************* //
