/*--------------------------------*- C++ -*----------------------------------*\
  =========                 |
  \\      /  F ield         | OpenFOAM: The Open Source CFD Toolbox
   \\    /   O peration     | Website:  https://openfoam.org
    \\  /    A nd           | Version:  10
     \\/     M anipulation  |
\*---------------------------------------------------------------------------*/
FoamFile
{
    format      ascii;
    class       volScalarField;
    location    "2500";
    object      k;
}
// * * * * * * * * * * * * * * * * * * * * * * * * * * * * * * * * * * * * * //

dimensions      [0 2 -2 0 0 0 0];

internalField   nonuniform List<scalar> 
400
(
1.79781e-09
1.79769e-09
1.79768e-09
1.79782e-09
5.39389e-08
5.39352e-08
5.39351e-08
5.39391e-08
3.81987e-07
3.8196e-07
3.8196e-07
3.81989e-07
1.38877e-06
1.38867e-06
1.38867e-06
1.38877e-06
3.59338e-06
3.59312e-06
3.59312e-06
3.59339e-06
7.60933e-06
7.6088e-06
7.6088e-06
7.60936e-06
1.4138e-05
1.4137e-05
1.4137e-05
1.41381e-05
2.39655e-05
2.39639e-05
2.39639e-05
2.39657e-05
3.79594e-05
3.79568e-05
3.79568e-05
3.79597e-05
5.70625e-05
5.70585e-05
5.70586e-05
5.7063e-05
8.22824e-05
8.22767e-05
8.22769e-05
8.22834e-05
0.000114675
0.000114667
0.000114668
0.000114677
0.00015532
0.00015531
0.00015531
0.000155323
0.000205287
0.000205273
0.000205273
0.00020529
0.000265588
0.000265571
0.000265572
0.000265594
0.00033713
0.000337108
0.000337109
0.000337138
0.000420643
0.000420616
0.000420618
0.000420655
0.000516621
0.000516588
0.000516591
0.000516637
0.000625252
0.000625213
0.000625217
0.000625273
0.000746366
0.000746322
0.000746326
0.000746394
0.000879401
0.00087935
0.000879354
0.000879436
0.00102339
0.00102333
0.00102334
0.00102343
0.00117698
0.00117692
0.00117692
0.00117703
0.00133851
0.00133844
0.00133844
0.00133857
0.00150603
0.00150596
0.00150596
0.0015061
0.00167748
0.0016774
0.00167739
0.00167755
0.0018507
0.00185062
0.0018506
0.00185076
0.00202358
0.0020235
0.00202347
0.00202364
0.00219425
0.00219417
0.00219412
0.0021943
0.00236164
0.00236156
0.00236149
0.00236168
0.00252475
0.00252467
0.00252459
0.00252478
0.00268265
0.00268258
0.00268248
0.00268268
0.00283452
0.00283446
0.00283435
0.00283455
0.00297968
0.00297963
0.0029795
0.00297971
0.00311757
0.00311752
0.00311739
0.0031176
0.00324775
0.0032477
0.00324756
0.00324777
0.00336989
0.00336985
0.0033697
0.00336991
0.00348377
0.00348373
0.00348358
0.00348379
0.00358928
0.00358924
0.00358908
0.0035893
0.00368637
0.00368634
0.00368617
0.00368639
0.00377508
0.00377505
0.00377488
0.0037751
0.00385551
0.00385549
0.00385532
0.00385553
0.0039278
0.00392778
0.00392761
0.00392782
0.00399212
0.00399211
0.00399193
0.00399214
0.00404866
0.00404864
0.00404847
0.00404868
0.00409758
0.00409757
0.00409739
0.0040976
0.00413903
0.00413903
0.00413885
0.00413906
0.00417312
0.00417312
0.00417295
0.00417315
0.00420011
0.00420011
0.00419995
0.00420014
0.00422057
0.00422056
0.00422041
0.00422059
0.00423491
0.0042349
0.00423477
0.00423493
0.00424355
0.00424352
0.00424341
0.00424354
0.00424682
0.0042468
0.00424671
0.00424681
0.00424509
0.00424507
0.00424499
0.00424507
0.00423864
0.00423862
0.00423855
0.0042386
0.00422773
0.0042277
0.00422766
0.00422767
0.00421256
0.00421252
0.00421251
0.00421247
0.0041933
0.00419326
0.00419327
0.00419319
0.00417009
0.00417005
0.00417006
0.00416997
0.00414303
0.00414301
0.00414301
0.00414291
0.00411221
0.00411219
0.0041122
0.00411208
0.00407767
0.00407765
0.00407766
0.00407754
0.00403945
0.00403944
0.00403945
0.00403931
0.00399758
0.00399756
0.00399757
0.00399742
0.00395208
0.00395204
0.00395207
0.0039519
0.00390295
0.00390291
0.00390294
0.00390276
0.00385022
0.00385019
0.00385021
0.00385004
0.00379393
0.00379391
0.00379392
0.00379376
0.00373412
0.00373411
0.00373412
0.00373398
0.00367087
0.00367086
0.00367087
0.00367073
0.00360423
0.00360421
0.00360423
0.0036041
0.00353428
0.00353425
0.00353428
0.00353413
0.00346109
0.00346105
0.0034611
0.00346094
0.00338474
0.00338471
0.00338475
0.0033846
0.00330534
0.00330531
0.00330535
0.00330521
0.00322297
0.00322295
0.00322298
0.00322286
0.00313784
0.00313782
0.00313784
0.00313776
0.00305029
0.00305028
0.00305026
0.00305025
0.00296053
0.00296053
0.00296046
0.00296052
0.00286861
0.00286861
0.00286851
0.0028686
0.00277469
0.00277465
0.00277456
0.00277465
0.00267901
0.00267898
0.00267888
0.00267898
0.0025819
0.00258192
0.00258179
0.00258192
0.00248383
0.00248385
0.00248372
0.00248386
0.00238528
0.00238528
0.00238516
0.00238529
0.00228675
0.00228679
0.00228665
0.0022868
0.00218892
0.00218898
0.00218883
0.00218898
0.00209245
0.00209252
0.00209238
0.00209252
0.00199809
0.00199816
0.00199803
0.00199816
0.00190663
0.00190669
0.00190658
0.0019067
0.00181893
0.00181897
0.00181888
0.00181899
0.00173587
0.0017359
0.00173582
0.00173593
0.00165838
0.00165839
0.00165832
0.00165842
0.00158743
0.00158738
0.00158733
0.00158742
0.00152391
0.00152377
0.0015238
0.00152388
0.00146872
0.00146852
0.0014686
0.00146869
0.0014225
0.00142225
0.00142236
0.00142247
0.00138594
0.00138567
0.00138577
0.0013859
0.00136054
0.00136026
0.00136034
0.00136048
0.00134753
0.00134724
0.00134731
0.00134746
)
;

boundaryField
{
    inlet
    {
        type            cyclic;
    }
    outlet
    {
        type            cyclic;
    }
    fixedWalls-bottom
    {
        type            kqRWallFunction;
        value           nonuniform List<scalar> 4(1.79781e-09 1.79769e-09 1.79768e-09 1.79782e-09);
    }
    fixedWalls-top
    {
        type            symmetry;
    }
    frontAndBack
    {
        type            empty;
    }
}


// ************************************************************************* //
