/*--------------------------------*- C++ -*----------------------------------*\
  =========                 |
  \\      /  F ield         | OpenFOAM: The Open Source CFD Toolbox
   \\    /   O peration     | Website:  https://openfoam.org
    \\  /    A nd           | Version:  10
     \\/     M anipulation  |
\*---------------------------------------------------------------------------*/
FoamFile
{
    format      ascii;
    class       volScalarField;
    location    "2500";
    object      nut;
}
// * * * * * * * * * * * * * * * * * * * * * * * * * * * * * * * * * * * * * //

dimensions      [0 2 -1 0 0 0 0];

internalField   nonuniform List<scalar> 
400
(
7.20867e-14
7.20816e-14
7.20815e-14
7.20868e-14
1.26446e-11
1.26437e-11
1.26437e-11
1.26446e-11
2.66195e-10
2.66177e-10
2.66177e-10
2.66197e-10
2.06022e-09
2.06007e-09
2.06007e-09
2.06023e-09
9.42392e-09
9.42325e-09
9.42325e-09
9.42395e-09
3.14512e-08
3.14489e-08
3.14489e-08
3.14512e-08
8.52655e-08
8.52594e-08
8.52593e-08
8.52655e-08
1.99604e-07
1.9959e-07
1.9959e-07
1.99604e-07
4.18968e-07
4.18937e-07
4.18937e-07
4.18967e-07
8.08183e-07
8.08123e-07
8.08124e-07
8.08182e-07
1.45711e-06
1.457e-06
1.457e-06
1.45711e-06
2.485e-06
2.48482e-06
2.48482e-06
2.48501e-06
4.04394e-06
4.04364e-06
4.04366e-06
4.04396e-06
6.32039e-06
6.31993e-06
6.31997e-06
6.32046e-06
9.53405e-06
9.53336e-06
9.53344e-06
9.53421e-06
1.39329e-05
1.39319e-05
1.39321e-05
1.39333e-05
1.97839e-05
1.97826e-05
1.97829e-05
1.97846e-05
2.73591e-05
2.73573e-05
2.73578e-05
2.73604e-05
3.6917e-05
3.69148e-05
3.69156e-05
3.69193e-05
4.86824e-05
4.86796e-05
4.86809e-05
4.86862e-05
6.28243e-05
6.2821e-05
6.2823e-05
6.28303e-05
7.94374e-05
7.94336e-05
7.94365e-05
7.94465e-05
9.85282e-05
9.85241e-05
9.8528e-05
9.85415e-05
0.000120009
0.000120005
0.00012001
0.000120028
0.000143702
0.000143697
0.000143704
0.000143727
0.000169346
0.000169342
0.000169349
0.000169378
0.000196619
0.000196615
0.000196623
0.000196659
0.000225155
0.000225151
0.000225159
0.000225203
0.000250516
0.000250506
0.0002505
0.000250522
0.000275492
0.000275483
0.000275474
0.000275496
0.000300971
0.000300962
0.000300951
0.000300975
0.000326876
0.000326868
0.000326855
0.000326879
0.000353096
0.000353089
0.000353074
0.000353099
0.000379521
0.000379514
0.000379498
0.000379524
0.000406046
0.000406039
0.000406022
0.000406048
0.00043257
0.000432564
0.000432545
0.000432572
0.000459002
0.000458997
0.000458977
0.000459005
0.000485262
0.000485257
0.000485236
0.000485264
0.000511283
0.000511279
0.000511256
0.000511286
0.000537023
0.000537019
0.000536996
0.000537026
0.000562471
0.000562468
0.000562443
0.000562473
0.000587663
0.000587661
0.000587635
0.000587665
0.000612699
0.000612698
0.00061267
0.000612698
0.000637751
0.00063775
0.00063772
0.000637746
0.000663072
0.000663072
0.00066304
0.000663062
0.00068897
0.000688969
0.000688934
0.000688953
0.000715479
0.000715478
0.000715442
0.000715464
0.000738789
0.000738792
0.000738782
0.000738898
0.000756353
0.000756355
0.000756344
0.000756454
0.000773341
0.000773342
0.000773331
0.000773433
0.000789861
0.00078986
0.000789849
0.000789942
0.000806026
0.000806021
0.000806012
0.000806092
0.000821945
0.000821942
0.000821932
0.000822001
0.000837733
0.00083773
0.000837721
0.000837777
0.000853489
0.000853485
0.000853477
0.00085352
0.000869296
0.000869287
0.000869283
0.000869312
0.000885211
0.0008852
0.000885199
0.000885208
0.000901267
0.000901254
0.000901252
0.000901248
0.00091747
0.000917458
0.000917453
0.000917439
0.00093381
0.000933797
0.000933795
0.000933766
0.000950263
0.000950242
0.000950247
0.0009502
0.000966775
0.000966752
0.000966759
0.000966698
0.0009833
0.000983277
0.000983285
0.000983211
0.000999784
0.000999767
0.000999771
0.000999687
0.0010162
0.00101616
0.00101618
0.00101608
0.00103247
0.00103244
0.00103244
0.00103234
0.00104857
0.00104856
0.00104854
0.00104844
0.00106449
0.00106449
0.00106446
0.00106436
0.00108023
0.00108021
0.0010802
0.0010801
0.0010958
0.00109579
0.00109576
0.00109567
0.00111125
0.0011112
0.00111122
0.0011111
0.00112662
0.00112658
0.00112659
0.00112648
0.00114203
0.00114199
0.00114201
0.0011419
0.00115763
0.00115759
0.00115762
0.0011575
0.00117357
0.00117357
0.00117361
0.00117349
0.00119017
0.00119023
0.00119027
0.00119012
0.00120778
0.00120782
0.00120807
0.00120782
0.00122514
0.00122497
0.00122524
0.0012252
0.00124147
0.00124128
0.00124138
0.00124157
0.00125651
0.00125643
0.0012564
0.0012567
0.00127029
0.00127032
0.00127023
0.0012706
0.0012829
0.00128304
0.00128288
0.00128337
0.00129446
0.0012947
0.00129449
0.00129513
0.00130514
0.00130545
0.00130518
0.00130599
0.00131508
0.00131545
0.00131513
0.0013161
0.00132445
0.00132488
0.00132455
0.00132557
0.00133356
0.00133383
0.0013338
0.00133448
0.00134211
0.00134248
0.00134248
0.00134316
0.00135043
0.00135089
0.00135092
0.00135166
0.00135864
0.00135918
0.00135926
0.00136006
0.00136683
0.00136743
0.00136758
0.00136845
0.00137505
0.00137567
0.00137593
0.00137688
0.00138329
0.00138382
0.0013843
0.00138532
0.00139142
0.00139161
0.00139268
0.0013937
0.00139931
0.00139831
0.00140104
0.00140187
0.00140663
0.00140535
0.00140847
0.00140947
0.00141273
0.00141127
0.00141466
0.00141584
0.00141695
0.00141542
0.00141892
0.00142037
0.00141948
0.0014181
0.0014215
0.00142342
0.00142147
0.00142048
0.00142353
0.00142611
)
;

boundaryField
{
    inlet
    {
        type            cyclic;
    }
    outlet
    {
        type            cyclic;
    }
    fixedWalls-bottom
    {
        type            nutkWallFunction;
        Cmu             0.09;
        kappa           0.41;
        E               9.8;
        value           uniform 0;
    }
    fixedWalls-top
    {
        type            symmetry;
    }
    frontAndBack
    {
        type            empty;
    }
}


// ************************************************************************* //
