/*--------------------------------*- C++ -*----------------------------------*\
  =========                 |
  \\      /  F ield         | OpenFOAM: The Open Source CFD Toolbox
   \\    /   O peration     | Website:  https://openfoam.org
    \\  /    A nd           | Version:  10
     \\/     M anipulation  |
\*---------------------------------------------------------------------------*/
FoamFile
{
    format      ascii;
    class       surfaceScalarField;
    location    "2500";
    object      phi;
}
// * * * * * * * * * * * * * * * * * * * * * * * * * * * * * * * * * * * * * //

dimensions      [0 3 -1 0 0 0 0];

internalField   nonuniform List<scalar> 
696
(
7.93869e-05
-1.11394e-12
7.93869e-05
7.72575e-12
7.93868e-05
3.29255e-11
-7.67549e-12
0.000241909
-8.5093e-11
0.000241909
3.49104e-11
0.000241909
1.16071e-10
-3.4437e-11
0.000410528
-2.06328e-10
0.000410528
8.5318e-11
0.000410528
2.36762e-10
-8.44859e-11
0.000585406
-3.53173e-10
0.000585406
1.6367e-10
0.000585406
3.82694e-10
-1.62403e-10
0.000766705
-5.09404e-10
0.000766705
2.74999e-10
0.000766704
5.3837e-10
-2.73386e-10
0.000954589
-6.60051e-10
0.000954589
4.25924e-10
0.000954589
6.8804e-10
-4.23862e-10
0.00114923
-7.84425e-10
0.00114923
6.22997e-10
0.00114922
8.11876e-10
-6.20607e-10
0.00135078
-8.6382e-10
0.00135078
8.74576e-10
0.00135078
8.9027e-10
-8.71724e-10
0.00155942
-8.72622e-10
0.00155942
1.18818e-09
0.00155942
8.9857e-10
-1.18501e-09
0.0017753
-7.87872e-10
0.0017753
1.57282e-09
0.0017753
8.12827e-10
-1.56917e-09
0.00199857
-5.78889e-10
0.00199857
2.03535e-09
0.00199857
6.03378e-10
-2.03141e-09
0.00222938
-2.18987e-10
0.00222938
2.58299e-09
0.00222938
2.42513e-10
-2.57856e-09
0.00246785
3.2648e-10
0.00246784
3.21872e-09
0.00246785
-3.03385e-10
-3.214e-09
0.00271407
1.08582e-09
0.00271407
3.94391e-09
0.00271407
-1.06366e-09
-3.93868e-09
0.00296811
2.09359e-09
0.00296811
4.75316e-09
0.00296811
-2.07183e-09
-4.74767e-09
0.00323001
3.37249e-09
0.00323001
5.63733e-09
0.00323001
-3.35163e-09
-5.63132e-09
0.00349976
4.94593e-09
0.00349976
6.57893e-09
0.00349976
-4.92545e-09
-6.57266e-09
0.00377729
6.81453e-09
0.00377729
7.55628e-09
0.00377729
-6.79491e-09
-7.54949e-09
0.00406252
8.96755e-09
0.00406252
8.5418e-09
0.00406252
-8.94831e-09
-8.53477e-09
0.00435528
1.13533e-08
0.00435528
9.50825e-09
0.00435528
-1.13349e-08
-9.50069e-09
0.0046554
1.38907e-08
0.0046554
1.04317e-08
0.0046554
-1.38727e-08
-1.0424e-08
0.00496266
1.64359e-08
0.00496266
1.12988e-08
0.00496266
-1.64186e-08
-1.12905e-08
0.00527683
1.87978e-08
0.00527683
1.21125e-08
0.00527683
-1.87809e-08
-1.2104e-08
0.00559768
2.07061e-08
0.00559768
1.28958e-08
0.00559768
-2.069e-08
-1.28868e-08
0.005925
2.18393e-08
0.005925
1.36998e-08
0.005925
-2.18235e-08
-1.36906e-08
0.0062586
2.17998e-08
0.0062586
1.46011e-08
0.0062586
-2.17848e-08
-1.45913e-08
0.00659836
2.01561e-08
0.00659836
1.57122e-08
0.00659836
-2.01414e-08
-1.57023e-08
0.00694417
1.6423e-08
0.00694417
1.71853e-08
0.00694416
-1.64091e-08
-1.71749e-08
0.00729626
1.1589e-08
0.00729626
1.85509e-08
0.00729625
-1.15754e-08
-1.85404e-08
0.00765497
6.95715e-09
0.00765497
1.92725e-08
0.00765497
-6.94426e-09
-1.92615e-08
0.00802041
2.64154e-09
0.00802041
1.94447e-08
0.0080204
-2.62897e-09
-1.94335e-08
0.0083926
-1.32309e-09
0.0083926
1.91782e-08
0.00839259
1.33498e-09
-1.91666e-08
0.00877159
-4.90429e-09
0.00877159
1.85944e-08
0.00877159
4.91587e-09
-1.85826e-08
0.00915746
-8.10483e-09
0.00915746
1.78024e-08
0.00915745
8.11575e-09
-1.77901e-08
0.00955027
-1.0929e-08
0.00955027
1.69171e-08
0.00955027
1.09396e-08
-1.69048e-08
0.00995011
-1.3408e-08
0.00995011
1.60359e-08
0.00995011
1.3418e-08
-1.6023e-08
0.0103571
-1.556e-08
0.0103571
1.52582e-08
0.0103571
1.55697e-08
-1.52454e-08
0.0107713
-1.74104e-08
0.0107713
1.46636e-08
0.0107713
1.74195e-08
-1.46502e-08
0.0111929
-1.89662e-08
0.0111929
1.43336e-08
0.0111929
1.89751e-08
-1.43202e-08
0.0116219
-2.02216e-08
0.0116219
1.43366e-08
0.0116219
2.02299e-08
-1.43228e-08
0.0120586
-2.11121e-08
0.0120586
1.47422e-08
0.0120586
2.11202e-08
-1.47283e-08
0.0125029
-2.15015e-08
0.0125029
1.55979e-08
0.0125029
2.15091e-08
-1.55836e-08
0.0129551
-2.11386e-08
0.0129551
1.69221e-08
0.0129551
2.11459e-08
-1.69078e-08
0.0134151
-1.96462e-08
0.0134151
1.8674e-08
0.0134151
1.96531e-08
-1.86593e-08
0.0138831
-1.64973e-08
0.0138831
2.07057e-08
0.0138831
1.6504e-08
-2.06911e-08
0.0143591
-1.10226e-08
0.0143591
2.26985e-08
0.0143591
1.10289e-08
-2.26835e-08
0.014843
-2.73573e-09
0.014843
2.41381e-08
0.0148431
2.74182e-09
-2.41231e-08
0.0153352
5.1906e-09
0.0153352
2.52125e-08
0.0153352
-5.18483e-09
-2.51972e-08
0.015836
9.7698e-09
0.015836
2.60848e-08
0.0158361
-9.76424e-09
-2.60696e-08
0.0163461
1.17e-08
0.0163461
2.6276e-08
0.0163461
-1.16947e-08
-2.62605e-08
0.0168655
1.16015e-08
0.0168655
2.54756e-08
0.0168655
-1.15965e-08
-2.54603e-08
0.0173943
1.00479e-08
0.0173943
2.36173e-08
0.0173943
-1.0043e-08
-2.36017e-08
0.0179326
7.49793e-09
0.0179326
2.07627e-08
0.0179326
-7.49329e-09
-2.07473e-08
0.0184804
4.33437e-09
0.0184804
1.70412e-08
0.0184804
-4.32989e-09
-1.70255e-08
0.0190378
8.03762e-10
0.0190378
1.2642e-08
0.0190378
-7.99537e-10
-1.26266e-08
0.0196049
-2.85748e-09
0.0196049
7.79062e-09
0.0196049
2.86158e-09
-7.77504e-09
0.0201815
-6.43005e-09
0.0201815
2.73201e-09
0.0201815
6.43385e-09
-2.71675e-09
0.0207678
-9.67886e-09
0.0207678
-2.3404e-09
0.0207678
9.68254e-09
2.35579e-09
0.0213636
-1.25572e-08
0.0213636
-7.27753e-09
0.0213636
1.25606e-08
7.29257e-09
0.021969
-1.51211e-08
0.021969
-1.19598e-08
0.021969
1.51243e-08
1.19749e-08
0.0225839
-1.75192e-08
0.0225839
-1.63676e-08
0.0225839
1.7522e-08
1.63823e-08
0.0232082
-1.97442e-08
0.0232082
-2.03862e-08
0.0232082
1.97468e-08
2.04009e-08
0.023842
-2.18485e-08
0.023842
-2.3916e-08
0.023842
2.18508e-08
2.39303e-08
0.0244851
-2.38312e-08
0.0244851
-2.67273e-08
0.0244851
2.38333e-08
2.67415e-08
0.0251375
-2.57128e-08
0.0251375
-2.8801e-08
0.0251375
2.57144e-08
2.88148e-08
0.0257991
-2.74004e-08
0.0257991
-3.02716e-08
0.0257991
2.74018e-08
3.02852e-08
0.0264699
-2.85622e-08
0.0264699
-3.10715e-08
0.0264699
2.8563e-08
3.10847e-08
0.0271496
-2.86662e-08
0.0271496
-3.10196e-08
0.0271496
2.86667e-08
3.10327e-08
0.0278383
-2.80761e-08
0.0278383
-3.02125e-08
0.0278383
2.80762e-08
3.02251e-08
0.0285357
-2.67279e-08
0.0285357
-2.90519e-08
0.0285357
2.67276e-08
2.90642e-08
0.0292417
-2.46539e-08
0.0292417
-2.78468e-08
0.0292417
2.46532e-08
2.78588e-08
0.0299561
-2.22708e-08
0.0299561
-2.66251e-08
0.0299561
2.22695e-08
2.66368e-08
0.0306787
-1.95472e-08
0.0306787
-2.53827e-08
0.0306787
1.95456e-08
2.5394e-08
0.0314093
-1.62651e-08
0.0314093
-2.45065e-08
0.0314093
1.62629e-08
2.45175e-08
0.0321476
-1.22558e-08
0.0321476
-2.31959e-08
0.0321476
1.22532e-08
2.32066e-08
0.0328931
-6.11161e-09
0.0328931
-1.93024e-08
0.0328931
6.10848e-09
1.93127e-08
0.0336456
1.64916e-09
0.0336456
-7.73919e-09
0.0336456
-1.65266e-09
7.74933e-09
0.0344046
6.45585e-09
0.0344046
1.02454e-08
0.0344046
-6.45988e-09
-1.02357e-08
0.0351699
6.28474e-09
0.0351699
2.56273e-08
0.0351699
-6.28905e-09
-2.56177e-08
0.0359411
4.55494e-09
0.0359411
3.47904e-08
0.0359411
-4.55975e-09
-3.47812e-08
0.036718
4.86104e-09
0.036718
4.0024e-08
0.036718
-4.86604e-09
-4.0015e-08
0.0375001
8.40164e-09
0.0375001
4.41073e-08
0.0375001
-8.40707e-09
-4.40987e-08
0.0382871
1.42446e-08
0.0382871
4.81214e-08
0.0382871
-1.42501e-08
-4.81129e-08
0.0390785
2.07438e-08
0.0390785
5.14678e-08
0.0390785
-2.07497e-08
-5.14597e-08
0.0398737
2.64608e-08
0.0398737
5.28553e-08
0.0398737
-2.64667e-08
-5.28474e-08
0.0406721
3.08093e-08
0.0406721
5.13197e-08
0.0406721
-3.08155e-08
-5.13122e-08
0.0414731
3.51249e-08
0.0414731
4.81177e-08
0.0414732
-3.5131e-08
-4.81104e-08
0.042276
4.07666e-08
0.042276
4.56729e-08
0.042276
-4.07728e-08
-4.5666e-08
0.0430799
4.73564e-08
0.0430799
4.54409e-08
0.0430799
-4.73624e-08
-4.54343e-08
0.0438841
5.44785e-08
0.0438841
4.80173e-08
0.0438841
-5.44845e-08
-4.80111e-08
0.0446874
6.25299e-08
0.0446874
5.35412e-08
0.0446874
-6.25356e-08
-5.35352e-08
0.0454891
7.29453e-08
0.0454891
6.14101e-08
0.0454891
-7.29509e-08
-6.14046e-08
0.0462879
8.70178e-08
0.0462879
6.99807e-08
0.046288
-8.70231e-08
-6.99755e-08
0.0470829
1.03438e-07
0.0470829
7.69152e-08
0.0470829
-1.03443e-07
-7.69104e-08
0.0478727
1.116e-07
0.0478727
8.07982e-08
0.0478727
-1.11604e-07
-8.07939e-08
0.0486561
1.05297e-07
0.0486561
7.90907e-08
0.0486561
-1.053e-07
-7.90871e-08
0.0494317
8.81308e-08
0.0494317
6.93853e-08
0.0494317
-8.81338e-08
-6.93824e-08
0.0501982
6.33988e-08
0.0501982
5.17235e-08
0.0501982
-6.34009e-08
-5.17214e-08
0.0509539
3.34267e-08
0.0509539
2.76948e-08
0.0509538
-3.34277e-08
-2.76938e-08
0.0516971
0.0516971
0.051697
)
;

boundaryField
{
    inlet
    {
        type            cyclic;
        value           nonuniform List<scalar> 
100
(
-0.051697
-0.0509538
-0.0501981
-0.0494317
-0.0486561
-0.0478727
-0.0470829
-0.046288
-0.0454891
-0.0446874
-0.0438841
-0.0430799
-0.042276
-0.0414731
-0.0406721
-0.0398737
-0.0390785
-0.0382871
-0.0375001
-0.036718
-0.0359411
-0.0351699
-0.0344046
-0.0336456
-0.0328931
-0.0321476
-0.0314093
-0.0306787
-0.0299561
-0.0292417
-0.0285357
-0.0278383
-0.0271496
-0.0264699
-0.0257991
-0.0251375
-0.0244851
-0.023842
-0.0232082
-0.0225839
-0.021969
-0.0213636
-0.0207678
-0.0201815
-0.0196049
-0.0190378
-0.0184804
-0.0179326
-0.0173943
-0.0168655
-0.0163461
-0.0158361
-0.0153352
-0.0148431
-0.0143591
-0.0138831
-0.0134151
-0.0129551
-0.0125029
-0.0120586
-0.0116219
-0.0111929
-0.0107713
-0.0103571
-0.00995011
-0.00955026
-0.00915745
-0.00877159
-0.00839259
-0.0080204
-0.00765497
-0.00729625
-0.00694416
-0.00659836
-0.0062586
-0.005925
-0.00559768
-0.00527683
-0.00496266
-0.0046554
-0.00435528
-0.00406252
-0.0037773
-0.00349976
-0.00323001
-0.00296811
-0.00271407
-0.00246785
-0.00222938
-0.00199857
-0.0017753
-0.00155942
-0.00135078
-0.00114923
-0.000954589
-0.000766704
-0.000585406
-0.000410528
-0.000241909
-7.93868e-05
)
;
    }
    outlet
    {
        type            cyclic;
        value           nonuniform List<scalar> 
100
(
0.051697
0.0509538
0.0501981
0.0494317
0.0486561
0.0478727
0.0470829
0.046288
0.0454891
0.0446874
0.0438841
0.0430799
0.042276
0.0414731
0.0406721
0.0398737
0.0390785
0.0382871
0.0375001
0.036718
0.0359411
0.0351699
0.0344046
0.0336456
0.0328931
0.0321476
0.0314093
0.0306787
0.0299561
0.0292417
0.0285357
0.0278383
0.0271496
0.0264699
0.0257991
0.0251375
0.0244851
0.023842
0.0232082
0.0225839
0.021969
0.0213636
0.0207678
0.0201815
0.0196049
0.0190378
0.0184804
0.0179326
0.0173943
0.0168655
0.0163461
0.0158361
0.0153352
0.0148431
0.0143591
0.0138831
0.0134151
0.0129551
0.0125029
0.0120586
0.0116219
0.0111929
0.0107713
0.0103571
0.00995011
0.00955026
0.00915745
0.00877159
0.00839259
0.0080204
0.00765497
0.00729625
0.00694416
0.00659836
0.0062586
0.005925
0.00559768
0.00527683
0.00496266
0.0046554
0.00435528
0.00406252
0.0037773
0.00349976
0.00323001
0.00296811
0.00271407
0.00246785
0.00222938
0.00199857
0.0017753
0.00155942
0.00135078
0.00114923
0.000954589
0.000766704
0.000585406
0.000410528
0.000241909
7.93868e-05
)
;
    }
    fixedWalls-bottom
    {
        type            calculated;
        value           uniform 0;
    }
    fixedWalls-top
    {
        type            symmetry;
        value           uniform 0;
    }
    frontAndBack
    {
        type            empty;
        value           nonuniform List<scalar> 0();
    }
}


// ************************************************************************* //
