/*--------------------------------*- C++ -*----------------------------------*\
  =========                 |
  \\      /  F ield         | OpenFOAM: The Open Source CFD Toolbox
   \\    /   O peration     | Website:  https://openfoam.org
    \\  /    A nd           | Version:  10
     \\/     M anipulation  |
\*---------------------------------------------------------------------------*/
FoamFile
{
    format      ascii;
    class       volSymmTensorField;
    location    "2500";
    object      R;
}
// * * * * * * * * * * * * * * * * * * * * * * * * * * * * * * * * * * * * * //

dimensions      [0 2 -2 0 0 0 0];

internalField   nonuniform List<symmTensor> 
400
(
(1.19854e-09 -2.68223e-13 -0 1.19854e-09 -0 1.19854e-09)
(1.19846e-09 -2.68205e-13 -0 1.19846e-09 -0 1.19846e-09)
(1.19846e-09 -2.68204e-13 -0 1.19846e-09 -0 1.19846e-09)
(1.19854e-09 -2.68224e-13 -0 1.19854e-09 -0 1.19854e-09)
(3.59593e-08 -4.68301e-11 -0 3.59593e-08 -0 3.59593e-08)
(3.59568e-08 -4.68269e-11 -0 3.59568e-08 -0 3.59568e-08)
(3.59567e-08 -4.68267e-11 -0 3.59567e-08 -0 3.59567e-08)
(3.59594e-08 -4.68301e-11 -0 3.59594e-08 -0 3.59594e-08)
(2.54658e-07 -9.81207e-10 -0 2.54658e-07 -0 2.54658e-07)
(2.5464e-07 -9.81139e-10 -0 2.5464e-07 -0 2.5464e-07)
(2.5464e-07 -9.81138e-10 -0 2.5464e-07 -0 2.5464e-07)
(2.54659e-07 -9.81214e-10 -0 2.54659e-07 -0 2.54659e-07)
(9.25845e-07 -7.5574e-09 -0 9.25845e-07 -0 9.25845e-07)
(9.2578e-07 -7.55687e-09 -0 9.2578e-07 -0 9.2578e-07)
(9.2578e-07 -7.55687e-09 -0 9.2578e-07 -0 9.2578e-07)
(9.25849e-07 -7.55745e-09 -0 9.25849e-07 -0 9.25849e-07)
(2.39558e-06 -3.43991e-08 -0 2.39558e-06 -0 2.39558e-06)
(2.39541e-06 -3.43966e-08 -0 2.39541e-06 -0 2.39541e-06)
(2.39541e-06 -3.43966e-08 -0 2.39541e-06 -0 2.39541e-06)
(2.39559e-06 -3.43992e-08 -0 2.39559e-06 -0 2.39559e-06)
(5.07289e-06 -1.14225e-07 -0 5.07289e-06 -0 5.07289e-06)
(5.07253e-06 -1.14217e-07 -0 5.07253e-06 -0 5.07253e-06)
(5.07253e-06 -1.14217e-07 -0 5.07253e-06 -0 5.07253e-06)
(5.07291e-06 -1.14225e-07 -0 5.07291e-06 -0 5.07291e-06)
(9.42533e-06 -3.08073e-07 -0 9.42533e-06 -0 9.42533e-06)
(9.42467e-06 -3.08051e-07 -0 9.42467e-06 -0 9.42467e-06)
(9.42467e-06 -3.08051e-07 -0 9.42467e-06 -0 9.42467e-06)
(9.42538e-06 -3.08073e-07 -0 9.42538e-06 -0 9.42538e-06)
(1.5977e-05 -7.17374e-07 -0 1.5977e-05 -0 1.5977e-05)
(1.59759e-05 -7.17321e-07 -0 1.59759e-05 -0 1.59759e-05)
(1.59759e-05 -7.17321e-07 -0 1.59759e-05 -0 1.59759e-05)
(1.59771e-05 -7.17373e-07 -0 1.59771e-05 -0 1.59771e-05)
(2.53063e-05 -1.49753e-06 -0 2.53063e-05 -0 2.53063e-05)
(2.53045e-05 -1.49742e-06 -0 2.53045e-05 -0 2.53045e-05)
(2.53045e-05 -1.49742e-06 -0 2.53045e-05 -0 2.53045e-05)
(2.53065e-05 -1.49753e-06 -0 2.53065e-05 -0 2.53065e-05)
(3.80417e-05 -2.87231e-06 -0 3.80417e-05 -0 3.80417e-05)
(3.8039e-05 -2.87209e-06 -0 3.8039e-05 -0 3.8039e-05)
(3.80391e-05 -2.8721e-06 -0 3.80391e-05 -0 3.80391e-05)
(3.8042e-05 -2.87231e-06 -0 3.8042e-05 -0 3.8042e-05)
(5.4855e-05 -5.14778e-06 -0 5.4855e-05 -0 5.4855e-05)
(5.48512e-05 -5.1474e-06 -0 5.48512e-05 -0 5.48512e-05)
(5.48513e-05 -5.1474e-06 -0 5.48513e-05 -0 5.48513e-05)
(5.48556e-05 -5.14779e-06 -0 5.48556e-05 -0 5.48556e-05)
(7.64501e-05 -8.72392e-06 -0 7.64501e-05 -0 7.64501e-05)
(7.64449e-05 -8.72326e-06 -0 7.64449e-05 -0 7.64449e-05)
(7.6445e-05 -8.72329e-06 -0 7.6445e-05 -0 7.6445e-05)
(7.64511e-05 -8.72395e-06 -0 7.64511e-05 -0 7.64511e-05)
(0.000103547 -1.41011e-05 -0 0.000103547 -0 0.000103547)
(0.00010354 -1.41e-05 -0 0.00010354 -0 0.00010354)
(0.00010354 -1.41001e-05 -0 0.00010354 -0 0.00010354)
(0.000103548 -1.41012e-05 -0 0.000103548 -0 0.000103548)
(0.000136858 -2.18783e-05 -0 0.000136858 -0 0.000136858)
(0.000136848 -2.18767e-05 -0 0.000136848 -0 0.000136848)
(0.000136849 -2.18768e-05 -0 0.000136849 -0 0.000136849)
(0.00013686 -2.18786e-05 -0 0.00013686 -0 0.00013686)
(0.000177059 -3.27391e-05 -0 0.000177059 -0 0.000177059)
(0.000177047 -3.27368e-05 -0 0.000177047 -0 0.000177047)
(0.000177048 -3.2737e-05 -0 0.000177048 -0 0.000177048)
(0.000177063 -3.27398e-05 -0 0.000177063 -0 0.000177063)
(0.000224753 -4.74229e-05 -0 0.000224753 -0 0.000224753)
(0.000224738 -4.74196e-05 -0 0.000224738 -0 0.000224738)
(0.00022474 -4.74201e-05 -0 0.00022474 -0 0.00022474)
(0.000224759 -4.74242e-05 -0 0.000224759 -0 0.000224759)
(0.000280429 -6.66784e-05 -0 0.000280429 -0 0.000280429)
(0.000280411 -6.66738e-05 -0 0.000280411 -0 0.000280411)
(0.000280412 -6.66747e-05 -0 0.000280412 -0 0.000280412)
(0.000280437 -6.66809e-05 -0 0.000280437 -0 0.000280437)
(0.000344414 -9.12013e-05 -0 0.000344414 -0 0.000344414)
(0.000344392 -9.11954e-05 -0 0.000344392 -0 0.000344392)
(0.000344394 -9.1197e-05 -0 0.000344394 -0 0.000344394)
(0.000344425 -9.12059e-05 -0 0.000344425 -0 0.000344425)
(0.000416835 -0.000121561 -0 0.000416835 -0 0.000416835)
(0.000416809 -0.000121554 -0 0.000416809 -0 0.000416809)
(0.000416811 -0.000121557 -0 0.000416811 -0 0.000416811)
(0.000416849 -0.000121569 -0 0.000416849 -0 0.000416849)
(0.000497578 -0.000158126 -0 0.000497578 -0 0.000497578)
(0.000497548 -0.000158117 -0 0.000497548 -0 0.000497548)
(0.000497551 -0.000158121 -0 0.000497551 -0 0.000497551)
(0.000497596 -0.000158139 -0 0.000497596 -0 0.000497596)
(0.000586267 -0.000200993 -0 0.000586267 -0 0.000586267)
(0.000586234 -0.000200983 -0 0.000586234 -0 0.000586234)
(0.000586236 -0.000200989 -0 0.000586236 -0 0.000586236)
(0.000586291 -0.000201013 -0 0.000586291 -0 0.000586291)
(0.00068226 -0.000249949 -0 0.000682259 -0 0.00068226)
(0.000682222 -0.000249938 -0 0.000682222 -0 0.000682222)
(0.000682224 -0.000249947 -0 0.000682224 -0 0.000682224)
(0.000682288 -0.000249978 -0 0.000682288 -0 0.000682288)
(0.000784656 -0.000304457 -0 0.000784656 -0 0.000784656)
(0.000784614 -0.000304445 -0 0.000784614 -0 0.000784614)
(0.000784615 -0.000304456 -0 0.000784616 -0 0.000784616)
(0.00078469 -0.000304497 -0 0.00078469 -0 0.00078469)
(0.000892339 -0.000363681 -0 0.000892339 -0 0.000892339)
(0.000892294 -0.000363669 -0 0.000892294 -0 0.000892294)
(0.000892293 -0.000363684 -0 0.000892293 -0 0.000892293)
(0.000892377 -0.000363736 -0 0.000892377 -0 0.000892377)
(0.00100402 -0.000426552 -0 0.00100402 -0 0.00100402)
(0.00100398 -0.00042654 -0 0.00100398 -0 0.00100398)
(0.00100397 -0.000426557 -0 0.00100397 -0 0.00100397)
(0.00100407 -0.000426623 -0 0.00100407 -0 0.00100407)
(0.00111832 -0.000491846 -0 0.00111832 -0 0.00111832)
(0.00111827 -0.000491834 -0 0.00111827 -0 0.00111827)
(0.00111826 -0.000491854 -0 0.00111826 -0 0.00111826)
(0.00111836 -0.000491934 -0 0.00111836 -0 0.00111836)
(0.0012338 -0.000558283 -0 0.0012338 -0 0.0012338)
(0.00123375 -0.000558272 -0 0.00123375 -0 0.00123375)
(0.00123373 -0.000558293 -0 0.00123373 -0 0.00123373)
(0.00123384 -0.000558389 -0 0.00123384 -0 0.00123384)
(0.00134906 -0.000624942 -0 0.00134906 -0 0.00134906)
(0.001349 -0.000624933 -0 0.001349 -0 0.001349)
(0.00134898 -0.000624955 -0 0.00134898 -0 0.00134898)
(0.0013491 -0.00062507 -0 0.0013491 -0 0.0013491)
(0.00146283 -0.000680217 -0 0.00146283 -0 0.00146283)
(0.00146278 -0.000680193 -0 0.00146278 -0 0.00146278)
(0.00146275 -0.000680176 -0 0.00146274 -0 0.00146274)
(0.00146287 -0.000680233 -0 0.00146287 -0 0.00146287)
(0.00157442 -0.000732107 -0 0.00157443 -0 0.00157442)
(0.00157437 -0.000732083 -0 0.00157437 -0 0.00157437)
(0.00157433 -0.000732062 -0 0.00157433 -0 0.00157433)
(0.00157445 -0.000732121 -0 0.00157445 -0 0.00157445)
(0.00168316 -0.000782671 -0 0.00168316 -0 0.00168316)
(0.00168311 -0.000782648 -0 0.00168311 -0 0.00168311)
(0.00168306 -0.000782623 -0 0.00168306 -0 0.00168306)
(0.00168319 -0.000782683 -0 0.00168319 -0 0.00168319)
(0.00178843 -0.00083162 -0 0.00178843 -0 0.00178843)
(0.00178838 -0.000831598 -0 0.00178838 -0 0.00178838)
(0.00178832 -0.000831568 -0 0.00178832 -0 0.00178832)
(0.00178845 -0.000831631 -0 0.00178845 -0 0.00178845)
(0.00188968 -0.000878701 -0 0.00188968 -0 0.00188968)
(0.00188964 -0.000878681 -0 0.00188964 -0 0.00188964)
(0.00188956 -0.000878647 -0 0.00188956 -0 0.00188956)
(0.0018897 -0.000878711 -0 0.0018897 -0 0.0018897)
(0.00198646 -0.000923702 -0 0.00198646 -0 0.00198646)
(0.00198642 -0.000923684 -0 0.00198642 -0 0.00198642)
(0.00198634 -0.000923646 -0 0.00198634 -0 0.00198634)
(0.00198647 -0.000923711 -0 0.00198647 -0 0.00198647)
(0.00207838 -0.000966448 -0 0.00207838 -0 0.00207838)
(0.00207835 -0.000966432 -0 0.00207835 -0 0.00207835)
(0.00207826 -0.000966391 -0 0.00207826 -0 0.00207826)
(0.0020784 -0.000966456 -0 0.0020784 -0 0.0020784)
(0.00216517 -0.0010068 -0 0.00216517 -0 0.00216517)
(0.00216514 -0.00100679 -0 0.00216514 -0 0.00216514)
(0.00216504 -0.00100675 -0 0.00216504 -0 0.00216504)
(0.00216518 -0.00100681 -0 0.00216518 -0 0.00216518)
(0.00224659 -0.00104467 -0 0.00224659 -0 0.00224659)
(0.00224656 -0.00104466 -0 0.00224656 -0 0.00224656)
(0.00224647 -0.00104461 -0 0.00224647 -0 0.00224647)
(0.00224661 -0.00104468 -0 0.00224661 -0 0.00224661)
(0.00232252 -0.00107999 -0 0.00232252 -0 0.00232252)
(0.00232249 -0.00107998 -0 0.00232249 -0 0.00232249)
(0.00232239 -0.00107993 -0 0.00232239 -0 0.00232239)
(0.00232253 -0.00107999 -0 0.00232253 -0 0.00232253)
(0.00239285 -0.00111273 -0 0.00239285 -0 0.00239285)
(0.00239283 -0.00111272 -0 0.00239283 -0 0.00239283)
(0.00239272 -0.00111267 -0 0.00239272 -0 0.00239272)
(0.00239286 -0.00111274 -0 0.00239286 -0 0.00239286)
(0.00245758 -0.00114292 -0 0.00245758 -0 0.00245758)
(0.00245756 -0.00114291 -0 0.00245756 -0 0.00245756)
(0.00245745 -0.00114286 -0 0.00245745 -0 0.00245745)
(0.00245759 -0.00114293 -0 0.00245759 -0 0.00245759)
(0.00251672 -0.00117064 -0 0.00251672 -0 0.00251672)
(0.0025167 -0.00117063 -0 0.0025167 -0 0.0025167)
(0.00251659 -0.00117058 -0 0.00251659 -0 0.00251659)
(0.00251674 -0.00117065 -0 0.00251674 -0 0.00251674)
(0.00257034 -0.00119603 -0 0.00257034 -0 0.00257034)
(0.00257032 -0.00119602 -0 0.00257032 -0 0.00257032)
(0.00257021 -0.00119597 -0 0.00257021 -0 0.00257021)
(0.00257036 -0.00119603 -0 0.00257036 -0 0.00257036)
(0.00261854 -0.0012193 -0 0.00261854 -0 0.00261854)
(0.00261852 -0.0012193 -0 0.00261852 -0 0.00261852)
(0.00261841 -0.00121924 -0 0.00261841 -0 0.00261841)
(0.00261855 -0.00121931 -0 0.00261855 -0 0.00261855)
(0.00266142 -0.00124077 -0 0.00266142 -0 0.00266142)
(0.0026614 -0.00124076 -0 0.0026614 -0 0.0026614)
(0.00266129 -0.00124071 -0 0.00266129 -0 0.00266129)
(0.00266143 -0.00124077 -0 0.00266143 -0 0.00266143)
(0.00269911 -0.0012608 -0 0.0026991 -0 0.00269911)
(0.0026991 -0.0012608 -0 0.00269909 -0 0.00269909)
(0.00269898 -0.00126074 -0 0.00269898 -0 0.00269898)
(0.00269912 -0.0012608 -0 0.00269912 -0 0.00269912)
(0.00273172 -0.00127985 -0 0.00273172 -0 0.00273172)
(0.00273171 -0.00127985 -0 0.00273171 -0 0.00273171)
(0.00273159 -0.00127979 -0 0.00273159 -0 0.00273159)
(0.00273173 -0.00127984 -0 0.00273173 -0 0.00273173)
(0.00275936 -0.00129838 -0 0.00275936 -0 0.00275936)
(0.00275935 -0.00129838 -0 0.00275935 -0 0.00275935)
(0.00275923 -0.00129832 -0 0.00275924 -0 0.00275924)
(0.00275937 -0.00129836 -0 0.00275937 -0 0.00275937)
(0.00278208 -0.00131098 -0 0.00278208 -0 0.00278208)
(0.00278208 -0.00131099 -0 0.00278208 -0 0.00278208)
(0.00278196 -0.00131097 -0 0.00278197 -0 0.00278197)
(0.0027821 -0.00131116 -0 0.0027821 -0 0.0027821)
(0.00280008 -0.00131416 -0 0.00280007 -0 0.00280007)
(0.00280007 -0.00131417 -0 0.00280007 -0 0.00280007)
(0.00279996 -0.00131415 -0 0.00279996 -0 0.00279996)
(0.00280009 -0.00131431 -0 0.00280009 -0 0.00280009)
(0.00281371 -0.00131628 -0 0.00281371 -0 0.00281371)
(0.00281371 -0.00131629 -0 0.00281371 -0 0.00281371)
(0.00281361 -0.00131627 -0 0.00281361 -0 0.00281361)
(0.00281373 -0.00131642 -0 0.00281373 -0 0.00281373)
(0.00282328 -0.00131681 -0 0.00282328 -0 0.00282328)
(0.00282327 -0.00131682 -0 0.00282327 -0 0.00282327)
(0.00282318 -0.0013168 -0 0.00282318 -0 0.00282318)
(0.00282328 -0.00131694 -0 0.00282328 -0 0.00282328)
(0.00282903 -0.00131593 -0 0.00282903 -0 0.00282903)
(0.00282901 -0.00131593 -0 0.00282901 -0 0.00282901)
(0.00282894 -0.00131591 -0 0.00282894 -0 0.00282894)
(0.00282903 -0.00131603 -0 0.00282903 -0 0.00282903)
(0.00283121 -0.00131377 -0 0.00283122 -0 0.00283121)
(0.0028312 -0.00131377 -0 0.0028312 -0 0.0028312)
(0.00283114 -0.00131376 -0 0.00283114 -0 0.00283114)
(0.00283121 -0.00131386 -0 0.00283121 -0 0.00283121)
(0.00283006 -0.00131049 -0 0.00283006 -0 0.00283006)
(0.00283005 -0.00131049 -0 0.00283005 -0 0.00283005)
(0.00282999 -0.00131048 -0 0.00282999 -0 0.00282999)
(0.00283005 -0.00131056 -0 0.00283005 -0 0.00283005)
(0.00282576 -0.0013062 -0 0.00282576 -0 0.00282576)
(0.00282575 -0.00130619 -0 0.00282575 -0 0.00282575)
(0.0028257 -0.00130618 -0 0.0028257 -0 0.0028257)
(0.00282574 -0.00130624 -0 0.00282574 -0 0.00282574)
(0.00281849 -0.00130097 -0 0.00281849 -0 0.00281849)
(0.00281846 -0.00130096 -0 0.00281846 -0 0.00281846)
(0.00281844 -0.00130095 -0 0.00281844 -0 0.00281844)
(0.00281845 -0.00130099 -0 0.00281845 -0 0.00281845)
(0.00280837 -0.00129486 -0 0.00280837 -0 0.00280837)
(0.00280834 -0.00129484 -0 0.00280835 -0 0.00280835)
(0.00280834 -0.00129484 -0 0.00280834 -0 0.00280834)
(0.00280831 -0.00129486 -0 0.00280831 -0 0.00280831)
(0.00279554 -0.00128788 -0 0.00279554 -0 0.00279554)
(0.00279551 -0.00128786 -0 0.00279551 -0 0.00279551)
(0.00279551 -0.00128786 -0 0.00279551 -0 0.00279551)
(0.00279546 -0.00128786 -0 0.00279546 -0 0.00279546)
(0.00278006 -0.00128004 -0 0.00278006 -0 0.00278006)
(0.00278004 -0.00128002 -0 0.00278004 -0 0.00278004)
(0.00278004 -0.00128001 -0 0.00278004 -0 0.00278004)
(0.00277998 -0.00128 -0 0.00277998 -0 0.00277998)
(0.00276202 -0.00127129 -0 0.00276202 -0 0.00276202)
(0.002762 -0.00127127 -0 0.00276201 -0 0.002762)
(0.00276201 -0.00127127 -0 0.00276201 -0 0.00276201)
(0.00276194 -0.00127124 -0 0.00276194 -0 0.00276194)
(0.00274147 -0.00126162 -0 0.00274147 -0 0.00274147)
(0.00274146 -0.00126159 -0 0.00274146 -0 0.00274146)
(0.00274146 -0.0012616 -0 0.00274146 -0 0.00274146)
(0.00274139 -0.00126154 -0 0.00274139 -0 0.00274139)
(0.00271845 -0.00125096 -0 0.00271845 -0 0.00271845)
(0.00271844 -0.00125094 -0 0.00271844 -0 0.00271844)
(0.00271844 -0.00125094 -0 0.00271844 -0 0.00271844)
(0.00271836 -0.00125087 -0 0.00271836 -0 0.00271836)
(0.00269297 -0.00123928 -0 0.00269297 -0 0.00269297)
(0.00269296 -0.00123925 -0 0.00269296 -0 0.00269296)
(0.00269296 -0.00123925 -0 0.00269296 -0 0.00269296)
(0.00269287 -0.00123917 -0 0.00269287 -0 0.00269287)
(0.00266505 -0.00122651 -0 0.00266505 -0 0.00266505)
(0.00266504 -0.00122649 -0 0.00266504 -0 0.00266504)
(0.00266505 -0.00122649 -0 0.00266505 -0 0.00266505)
(0.00266495 -0.0012264 -0 0.00266495 -0 0.00266495)
(0.00263472 -0.00121266 -0 0.00263472 -0 0.00263472)
(0.0026347 -0.00121262 -0 0.0026347 -0 0.0026347)
(0.00263471 -0.00121263 -0 0.00263471 -0 0.00263471)
(0.0026346 -0.00121251 -0 0.0026346 -0 0.0026346)
(0.00260196 -0.00119765 -0 0.00260196 -0 0.00260196)
(0.00260194 -0.00119762 -0 0.00260194 -0 0.00260194)
(0.00260196 -0.00119762 -0 0.00260196 -0 0.00260196)
(0.00260184 -0.0011975 -0 0.00260184 -0 0.00260184)
(0.00256681 -0.00118148 -0 0.00256681 -0 0.00256681)
(0.00256679 -0.00118147 -0 0.00256679 -0 0.00256679)
(0.00256681 -0.00118144 -0 0.00256681 -0 0.00256681)
(0.00256669 -0.00118134 -0 0.00256669 -0 0.00256669)
(0.00252929 -0.00116416 -0 0.00252929 -0 0.00252929)
(0.00252927 -0.00116414 -0 0.00252927 -0 0.00252927)
(0.00252928 -0.00116412 -0 0.00252928 -0 0.00252928)
(0.00252918 -0.00116402 -0 0.00252918 -0 0.00252918)
(0.00248941 -0.00114568 -0 0.00248941 -0 0.00248941)
(0.00248941 -0.00114566 -0 0.00248941 -0 0.00248941)
(0.00248941 -0.00114564 -0 0.00248941 -0 0.00248941)
(0.00248932 -0.00114555 -0 0.00248932 -0 0.00248932)
(0.00244724 -0.00112607 -0 0.00244724 -0 0.00244724)
(0.00244724 -0.00112605 -0 0.00244724 -0 0.00244724)
(0.00244724 -0.00112603 -0 0.00244724 -0 0.00244724)
(0.00244716 -0.00112594 -0 0.00244716 -0 0.00244716)
(0.00240282 -0.00110537 -0 0.00240282 -0 0.00240282)
(0.00240281 -0.00110532 -0 0.00240281 -0 0.00240281)
(0.00240282 -0.00110533 -0 0.00240282 -0 0.00240282)
(0.00240273 -0.00110522 -0 0.00240273 -0 0.00240273)
(0.00235619 -0.00108358 -0 0.00235619 -0 0.00235619)
(0.00235616 -0.00108354 -0 0.00235616 -0 0.00235616)
(0.00235619 -0.00108355 -0 0.00235619 -0 0.00235619)
(0.00235609 -0.00108345 -0 0.00235609 -0 0.00235609)
(0.00230739 -0.00106079 -0 0.00230739 -0 0.00230739)
(0.00230737 -0.00106075 -0 0.00230737 -0 0.00230737)
(0.0023074 -0.00106077 -0 0.0023074 -0 0.0023074)
(0.00230729 -0.00106067 -0 0.00230729 -0 0.00230729)
(0.0022565 -0.00103706 -0 0.0022565 -0 0.0022565)
(0.00225647 -0.00103702 -0 0.00225647 -0 0.00225647)
(0.0022565 -0.00103705 -0 0.0022565 -0 0.0022565)
(0.0022564 -0.00103695 -0 0.0022564 -0 0.0022564)
(0.00220356 -0.00101244 -0 0.00220356 -0 0.00220356)
(0.00220354 -0.00101242 -0 0.00220354 -0 0.00220354)
(0.00220357 -0.00101246 -0 0.00220357 -0 0.00220357)
(0.00220347 -0.00101236 -0 0.00220347 -0 0.00220347)
(0.00214865 -0.000987059 -0 0.00214865 -0 0.00214865)
(0.00214863 -0.000987087 -0 0.00214863 -0 0.00214863)
(0.00214865 -0.000987113 -0 0.00214865 -0 0.00214865)
(0.00214857 -0.000987011 -0 0.00214857 -0 0.00214857)
(0.0020919 -0.000961176 -0 0.00209189 -0 0.0020919)
(0.00209188 -0.000961203 -0 0.00209188 -0 0.00209188)
(0.00209189 -0.000961359 -0 0.0020919 -0 0.0020919)
(0.00209184 -0.000961195 -0 0.00209184 -0 0.00209184)
(0.00203353 -0.000933968 -0 0.00203352 -0 0.00203352)
(0.00203352 -0.000933866 -0 0.00203352 -0 0.00203352)
(0.0020335 -0.000934028 -0 0.00203351 -0 0.00203351)
(0.0020335 -0.000934016 -0 0.0020335 -0 0.0020335)
(0.00197369 -0.000905131 -0 0.00197369 -0 0.00197369)
(0.00197369 -0.000905028 -0 0.00197369 -0 0.00197369)
(0.00197364 -0.000905094 -0 0.00197364 -0 0.00197364)
(0.00197368 -0.00090522 -0 0.00197368 -0 0.00197368)
(0.00191241 -0.000874643 -0 0.00191241 -0 0.00191241)
(0.00191241 -0.000874603 -0 0.0019124 -0 0.0019124)
(0.00191234 -0.000874599 -0 0.00191234 -0 0.00191234)
(0.00191239 -0.000874795 -0 0.0019124 -0 0.0019124)
(0.0018498 -0.000842608 -0 0.0018498 -0 0.0018498)
(0.00184977 -0.00084262 -0 0.00184977 -0 0.00184977)
(0.00184971 -0.000842581 -0 0.00184971 -0 0.00184971)
(0.00184977 -0.000842822 -0 0.00184977 -0 0.00184977)
(0.00178601 -0.00080912 -0 0.00178601 -0 0.00178601)
(0.00178599 -0.000809195 -0 0.00178599 -0 0.00178599)
(0.00178592 -0.000809112 -0 0.00178592 -0 0.00178592)
(0.00178599 -0.000809417 -0 0.00178599 -0 0.00178599)
(0.00172127 -0.000774287 -0 0.00172127 -0 0.00172127)
(0.00172128 -0.000774413 -0 0.00172128 -0 0.00172128)
(0.00172119 -0.000774307 -0 0.0017212 -0 0.00172119)
(0.00172128 -0.000774679 -0 0.00172128 -0 0.00172128)
(0.00165589 -0.000738222 -0 0.00165589 -0 0.00165589)
(0.0016559 -0.000738382 -0 0.0016559 -0 0.0016559)
(0.00165581 -0.000738255 -0 0.00165582 -0 0.00165582)
(0.00165591 -0.000738689 -0 0.00165591 -0 0.00165591)
(0.00159019 -0.000701008 -0 0.00159018 -0 0.00159018)
(0.00159019 -0.000701189 -0 0.00159019 -0 0.00159019)
(0.0015901 -0.000701046 -0 0.00159011 -0 0.00159011)
(0.0015902 -0.000701525 -0 0.0015902 -0 0.0015902)
(0.0015245 -0.000662712 -0 0.0015245 -0 0.0015245)
(0.00152453 -0.000662919 -0 0.00152453 -0 0.00152453)
(0.00152443 -0.000662776 -0 0.00152443 -0 0.00152443)
(0.00152454 -0.000663262 -0 0.00152454 -0 0.00152454)
(0.00145928 -0.000623486 -0 0.00145928 -0 0.00145928)
(0.00145932 -0.000623615 -0 0.00145932 -0 0.00145932)
(0.00145922 -0.000623597 -0 0.00145922 -0 0.00145922)
(0.00145932 -0.000623922 -0 0.00145932 -0 0.00145932)
(0.00139497 -0.000583181 -0 0.00139497 -0 0.00139497)
(0.00139501 -0.000583342 -0 0.00139501 -0 0.00139501)
(0.00139492 -0.00058333 -0 0.00139492 -0 0.00139492)
(0.00139501 -0.000583646 -0 0.00139501 -0 0.00139501)
(0.00133206 -0.000541937 -0 0.00133206 -0 0.00133206)
(0.0013321 -0.000542113 -0 0.0013321 -0 0.0013321)
(0.00133202 -0.00054212 -0 0.00133202 -0 0.00133202)
(0.0013321 -0.000542426 -0 0.0013321 -0 0.0013321)
(0.00127109 -0.000499772 -0 0.00127109 -0 0.00127109)
(0.00127113 -0.000499956 -0 0.00127113 -0 0.00127113)
(0.00127105 -0.000499984 -0 0.00127105 -0 0.00127105)
(0.00127113 -0.000500284 -0 0.00127113 -0 0.00127113)
(0.00121262 -0.000456697 -0 0.00121262 -0 0.00121262)
(0.00121265 -0.000456877 -0 0.00121265 -0 0.00121265)
(0.00121258 -0.000456934 -0 0.00121259 -0 0.00121259)
(0.00121266 -0.000457228 -0 0.00121266 -0 0.00121266)
(0.00115725 -0.000412711 -0 0.00115724 -0 0.00115724)
(0.00115726 -0.000412872 -0 0.00115726 -0 0.00115726)
(0.00115721 -0.000412966 -0 0.00115721 -0 0.00115721)
(0.00115728 -0.00041325 -0 0.00115729 -0 0.00115728)
(0.00110559 -0.000367796 -0 0.00110559 -0 0.00110559)
(0.00110559 -0.000367916 -0 0.00110559 -0 0.00110559)
(0.00110554 -0.000368068 -0 0.00110555 -0 0.00110554)
(0.00110561 -0.000368332 -0 0.00110562 -0 0.00110561)
(0.00105829 -0.00032192 -0 0.00105828 -0 0.00105829)
(0.00105825 -0.000321973 -0 0.00105825 -0 0.00105825)
(0.00105822 -0.000322222 -0 0.00105822 -0 0.00105822)
(0.00105828 -0.000322444 -0 0.00105828 -0 0.00105828)
(0.00101594 -0.00027506 -0 0.00101594 -0 0.00101594)
(0.00101585 -0.000274917 -0 0.00101585 -0 0.00101585)
(0.00101587 -0.00027542 -0 0.00101587 -0 0.00101587)
(0.00101592 -0.000275564 -0 0.00101592 -0 0.00101592)
(0.000979147 -0.000227193 -0 0.000979149 -0 0.000979148)
(0.000979012 -0.000227046 -0 0.000979012 -0 0.000979012)
(0.000979069 -0.00022752 -0 0.000979067 -0 0.000979068)
(0.000979125 -0.000227654 -0 0.000979124 -0 0.000979124)
(0.000948331 -0.000178279 -0 0.000948336 -0 0.000948333)
(0.000948166 -0.000178141 -0 0.000948169 -0 0.000948168)
(0.00094824 -0.000178556 -0 0.000948235 -0 0.000948238)
(0.000948312 -0.000178677 -0 0.000948309 -0 0.00094831)
(0.000923957 -0.000128333 -0 0.000923965 -0 0.000923961)
(0.000923777 -0.000128226 -0 0.000923783 -0 0.00092378)
(0.000923851 -0.000128542 -0 0.000923843 -0 0.000923847)
(0.000923936 -0.000128647 -0 0.00092393 -0 0.000923933)
(0.000907022 -7.74691e-05 -0 0.000907031 -0 0.000907027)
(0.000906836 -7.74083e-05 -0 0.000906844 -0 0.00090684)
(0.0009069 -7.75995e-05 -0 0.00090689 -0 0.000906895)
(0.000906992 -7.76819e-05 -0 0.000906985 -0 0.000906989)
(0.000898347 -2.59248e-05 -0 0.000898357 -0 0.000898352)
(0.000898158 -2.59103e-05 -0 0.000898166 -0 0.000898162)
(0.000898212 -2.59694e-05 -0 0.000898202 -0 0.000898207)
(0.00089831 -2.6007e-05 -0 0.000898302 -0 0.000898306)
)
;

boundaryField
{
    inlet
    {
        type            cyclic;
    }
    outlet
    {
        type            cyclic;
    }
    fixedWalls-bottom
    {
        type            kqRWallFunction;
        value           nonuniform List<symmTensor> 4((1.19854e-09 -0 -0 1.19854e-09 -0 1.19854e-09) (1.19846e-09 -0 -0 1.19846e-09 -0 1.19846e-09) (1.19846e-09 -0 -0 1.19846e-09 -0 1.19846e-09) (1.19854e-09 -0 -0 1.19854e-09 -0 1.19854e-09));
    }
    fixedWalls-top
    {
        type            symmetry;
    }
    frontAndBack
    {
        type            empty;
    }
}


// ************************************************************************* //
