/*--------------------------------*- C++ -*----------------------------------*\
  =========                 |
  \\      /  F ield         | OpenFOAM: The Open Source CFD Toolbox
   \\    /   O peration     | Website:  https://openfoam.org
    \\  /    A nd           | Version:  10
     \\/     M anipulation  |
\*---------------------------------------------------------------------------*/
FoamFile
{
    format      ascii;
    class       volVectorField;
    location    "2500";
    object      U;
}
// * * * * * * * * * * * * * * * * * * * * * * * * * * * * * * * * * * * * * //

dimensions      [0 1 -1 0 0 0 0];

internalField   nonuniform List<vector> 
400
(
(0.0086033 -2.73662e-11 0)
(0.00860331 1.10226e-12 0)
(0.0086033 7.42529e-12 0)
(0.0086033 -9.41e-13 0)
(0.0258515 -4.19664e-12 0)
(0.0258516 1.60372e-11 0)
(0.0258515 6.59841e-11 0)
(0.0258515 -1.59376e-11 0)
(0.043261 -1.42282e-10 0)
(0.043261 5.39538e-11 0)
(0.043261 1.68943e-10 0)
(0.043261 -5.33132e-11 0)
(0.0608316 -2.74612e-10 0)
(0.0608316 1.1716e-10 0)
(0.0608316 3.05578e-10 0)
(0.0608316 -1.16105e-10 0)
(0.0785631 -4.3007e-10 0)
(0.0785632 2.10718e-10 0)
(0.0785631 4.60551e-10 0)
(0.0785631 -2.09269e-10 0)
(0.0964552 -5.88753e-10 0)
(0.0964553 3.40329e-10 0)
(0.0964552 6.17658e-10 0)
(0.0964552 -3.38485e-10 0)
(0.114507 -7.31512e-10 0)
(0.114507 5.12656e-10 0)
(0.114507 7.5924e-10 0)
(0.114507 -5.10425e-10 0)
(0.132718 -8.38773e-10 0)
(0.132718 7.35178e-10 0)
(0.132718 8.65635e-10 0)
(0.132718 -7.32554e-10 0)
(0.151087 -8.88625e-10 0)
(0.151087 1.01596e-09 0)
(0.151087 9.14762e-10 0)
(0.151087 -1.01294e-09 0)
(0.169611 -8.56848e-10 0)
(0.169611 1.36334e-09 0)
(0.169611 8.82255e-10 0)
(0.169611 -1.35993e-09 0)
(0.188288 -7.16579e-10 0)
(0.188288 1.78547e-09 0)
(0.188288 7.41293e-10 0)
(0.188288 -1.78168e-09 0)
(0.207112 -4.39015e-10 0)
(0.207112 2.28957e-09 0)
(0.207112 4.63026e-10 0)
(0.207112 -2.28538e-09 0)
(0.226078 6.71943e-12 0)
(0.226078 2.88101e-09 0)
(0.226077 1.66205e-11 0)
(0.226078 -2.87643e-09 0)
(0.245176 6.5247e-10 0)
(0.245176 3.56218e-09 0)
(0.245176 -6.29809e-10 0)
(0.245176 -3.5572e-09 0)
(0.264397 1.53024e-09 0)
(0.264397 4.33135e-09 0)
(0.264397 -1.50823e-09 0)
(0.264397 -4.32599e-09 0)
(0.283726 2.66957e-09 0)
(0.283726 5.18138e-09 0)
(0.283726 -2.64822e-09 0)
(0.283726 -5.17562e-09 0)
(0.303146 4.09465e-09 0)
(0.303146 6.09887e-09 0)
(0.303146 -4.07393e-09 0)
(0.303146 -6.09272e-09 0)
(0.322636 5.8192e-09 0)
(0.322636 7.06394e-09 0)
(0.322636 -5.79911e-09 0)
(0.322637 -7.05741e-09 0)
(0.342174 7.84006e-09 0)
(0.342173 8.0514e-09 0)
(0.342173 -7.82059e-09 0)
(0.342174 -8.04449e-09 0)
(0.361731 1.01283e-08 0)
(0.361731 9.03289e-09 0)
(0.361731 -1.01094e-08 0)
(0.361732 -9.02559e-09 0)
(0.381281 1.26196e-08 0)
(0.381281 9.98185e-09 0)
(0.381281 -1.26013e-08 0)
(0.381281 -9.97417e-09 0)
(0.400794 1.52032e-08 0)
(0.400794 1.08786e-08 0)
(0.400794 -1.51855e-08 0)
(0.400794 -1.08705e-08 0)
(0.420241 1.7713e-08 0)
(0.420241 1.17166e-08 0)
(0.420241 -1.76959e-08 0)
(0.420241 -1.17082e-08 0)
(0.439594 1.99226e-08 0)
(0.439594 1.25062e-08 0)
(0.439594 -1.99061e-08 0)
(0.439594 -1.24974e-08 0)
(0.458829 2.15426e-08 0)
(0.458829 1.3281e-08 0)
(0.458829 -2.15266e-08 0)
(0.458829 -1.32719e-08 0)
(0.477924 2.21888e-08 0)
(0.477924 1.41141e-08 0)
(0.477924 -2.21734e-08 0)
(0.477924 -1.41046e-08 0)
(0.496862 2.13181e-08 0)
(0.496862 1.51538e-08 0)
(0.496862 -2.13032e-08 0)
(0.496862 -1.5144e-08 0)
(0.51563 1.83491e-08 0)
(0.51563 1.65757e-08 0)
(0.51563 -1.83348e-08 0)
(0.51563 -1.65655e-08 0)
(0.534241 1.43302e-08 0)
(0.534241 1.78459e-08 0)
(0.534241 -1.43164e-08 0)
(0.53424 -1.78354e-08 0)
(0.552712 9.30378e-09 0)
(0.552713 1.9005e-08 0)
(0.552712 -9.29051e-09 0)
(0.552712 -1.89942e-08 0)
(0.571045 4.69345e-09 0)
(0.571045 1.94847e-08 0)
(0.571045 -4.68069e-09 0)
(0.571045 -1.94736e-08 0)
(0.589235 5.40905e-10 0)
(0.589236 1.94106e-08 0)
(0.589236 -5.28652e-10 0)
(0.589235 -1.93991e-08 0)
(0.607281 -3.22163e-09 0)
(0.607281 1.89498e-08 0)
(0.607281 3.23339e-09 0)
(0.607281 -1.89381e-08 0)
(0.625179 -6.60654e-09 0)
(0.62518 1.82314e-08 0)
(0.625179 6.61781e-09 0)
(0.625179 -1.82194e-08 0)
(0.64293 -9.61518e-09 0)
(0.642931 1.73661e-08 0)
(0.64293 9.62598e-09 0)
(0.64293 -1.73538e-08 0)
(0.660534 -1.22615e-08 0)
(0.660534 1.6459e-08 0)
(0.660534 1.22718e-08 0)
(0.660534 -1.64464e-08 0)
(0.67799 -1.45709e-08 0)
(0.67799 1.56084e-08 0)
(0.67799 1.45808e-08 0)
(0.67799 -1.55955e-08 0)
(0.695301 -1.65674e-08 0)
(0.695301 1.49028e-08 0)
(0.695301 1.65769e-08 0)
(0.695301 -1.48896e-08 0)
(0.712467 -1.82706e-08 0)
(0.712467 1.44217e-08 0)
(0.712467 1.82796e-08 0)
(0.712467 -1.44084e-08 0)
(0.72949 -1.96858e-08 0)
(0.72949 1.42425e-08 0)
(0.72949 1.96944e-08 0)
(0.72949 -1.42289e-08 0)
(0.746372 -2.07822e-08 0)
(0.746372 1.44336e-08 0)
(0.746372 2.07904e-08 0)
(0.746372 -1.44198e-08 0)
(0.763114 -2.14693e-08 0)
(0.763114 1.50573e-08 0)
(0.763114 2.14771e-08 0)
(0.763114 -1.50432e-08 0)
(0.779717 -2.15703e-08 0)
(0.779717 1.61545e-08 0)
(0.779716 2.15777e-08 0)
(0.779717 -1.61403e-08 0)
(0.796178 -2.07854e-08 0)
(0.796178 1.7725e-08 0)
(0.796178 2.07924e-08 0)
(0.796178 -1.77105e-08 0)
(0.812497 -1.85766e-08 0)
(0.812497 1.96665e-08 0)
(0.812497 1.85834e-08 0)
(0.812497 -1.96518e-08 0)
(0.828667 -1.40269e-08 0)
(0.828667 2.16844e-08 0)
(0.828667 1.40333e-08 0)
(0.828668 -2.16695e-08 0)
(0.844685 -6.46816e-09 0)
(0.844684 2.33487e-08 0)
(0.844684 6.47424e-09 0)
(0.844685 -2.33337e-08 0)
(0.860555 8.8638e-10 0)
(0.860555 2.49342e-08 0)
(0.860555 -8.80589e-10 0)
(0.860556 -2.49191e-08 0)
(0.876305 7.92573e-09 0)
(0.876305 2.58362e-08 0)
(0.876305 -7.92018e-09 0)
(0.876306 -2.58209e-08 0)
(0.891953 1.13495e-08 0)
(0.891953 2.63725e-08 0)
(0.891953 -1.13442e-08 0)
(0.891953 -2.63572e-08 0)
(0.907497 1.21093e-08 0)
(0.907497 2.61048e-08 0)
(0.907497 -1.21042e-08 0)
(0.907497 -2.60894e-08 0)
(0.922936 1.11236e-08 0)
(0.922936 2.48052e-08 0)
(0.922936 -1.11187e-08 0)
(0.922936 -2.47897e-08 0)
(0.938266 8.96459e-09 0)
(0.938266 2.24219e-08 0)
(0.938266 -8.95988e-09 0)
(0.938266 -2.24064e-08 0)
(0.953484 6.02486e-09 0)
(0.953484 1.90852e-08 0)
(0.953484 -6.02031e-09 0)
(0.953484 -1.90697e-08 0)
(0.968585 2.60985e-09 0)
(0.968585 1.49696e-08 0)
(0.968585 -2.60546e-09 0)
(0.968585 -1.4954e-08 0)
(0.983564 -1.04746e-09 0)
(0.983564 1.02935e-08 0)
(0.983564 1.05169e-09 0)
(0.983564 -1.0278e-08 0)
(0.998414 -4.67823e-09 0)
(0.998415 5.30494e-09 0)
(0.998415 4.68228e-09 0)
(0.998414 -5.28951e-09 0)
(1.01313 -8.1106e-09 0)
(1.01313 1.70275e-10 0)
(1.01313 8.11442e-09 0)
(1.01313 -1.54941e-10 0)
(1.02771 -1.11865e-08 0)
(1.02771 -4.85465e-09 0)
(1.02771 1.119e-08 0)
(1.02771 4.86987e-09 0)
(1.04213 -1.39383e-08 0)
(1.04213 -9.71629e-09 0)
(1.04213 1.39416e-08 0)
(1.04213 9.73136e-09 0)
(1.0564 -1.63987e-08 0)
(1.0564 -1.4284e-08 0)
(1.0564 1.64017e-08 0)
(1.0564 1.42989e-08 0)
(1.07051 -1.86906e-08 0)
(1.07051 -1.85177e-08 0)
(1.07051 1.86933e-08 0)
(1.07051 1.85324e-08 0)
(1.08445 -2.08418e-08 0)
(1.08446 -2.23073e-08 0)
(1.08446 2.08443e-08 0)
(1.08445 2.23218e-08 0)
(1.09822 -2.28472e-08 0)
(1.09822 -2.54472e-08 0)
(1.09822 2.28494e-08 0)
(1.09822 2.54615e-08 0)
(1.1118 -2.48126e-08 0)
(1.11181 -2.79612e-08 0)
(1.11181 2.48146e-08 0)
(1.1118 2.79753e-08 0)
(1.1252 -2.664e-08 0)
(1.1252 -2.97508e-08 0)
(1.1252 2.66417e-08 0)
(1.1252 2.97646e-08 0)
(1.1384 -2.79991e-08 0)
(1.1384 -3.08575e-08 0)
(1.1384 2.80005e-08 0)
(1.1384 3.0871e-08 0)
(1.1514 -2.86872e-08 0)
(1.1514 -3.11682e-08 0)
(1.1514 2.86882e-08 0)
(1.1514 3.11814e-08 0)
(1.16419 -2.86755e-08 0)
(1.16419 -3.07513e-08 0)
(1.16419 2.8676e-08 0)
(1.16419 3.07642e-08 0)
(1.17676 -2.74859e-08 0)
(1.17676 -2.97745e-08 0)
(1.17676 2.74859e-08 0)
(1.17676 2.97871e-08 0)
(1.1891 -2.58993e-08 0)
(1.1891 -2.85239e-08 0)
(1.1891 2.58989e-08 0)
(1.1891 2.85361e-08 0)
(1.20122 -2.35926e-08 0)
(1.20122 -2.71648e-08 0)
(1.20122 2.35917e-08 0)
(1.20122 2.71767e-08 0)
(1.21309 -2.10133e-08 0)
(1.21309 -2.59589e-08 0)
(1.21309 2.1012e-08 0)
(1.21309 2.59705e-08 0)
(1.22471 -1.81515e-08 0)
(1.22471 -2.53338e-08 0)
(1.22471 1.81498e-08 0)
(1.22471 2.53451e-08 0)
(1.23606 -1.45287e-08 0)
(1.23606 -2.46893e-08 0)
(1.23606 1.45266e-08 0)
(1.23606 2.47003e-08 0)
(1.24714 -8.42645e-09 0)
(1.24714 -2.25823e-08 0)
(1.24714 8.42378e-09 0)
(1.24714 2.25931e-08 0)
(1.25793 -1.31839e-09 0)
(1.25793 -1.28521e-08 0)
(1.25793 1.31524e-09 0)
(1.25793 1.28623e-08 0)
(1.26842 3.94467e-09 0)
(1.26842 1.05458e-09 0)
(1.26842 -3.94842e-09 0)
(1.26842 -1.04481e-09 0)
(1.27861 6.29201e-09 0)
(1.27861 1.76516e-08 0)
(1.27861 -6.29646e-09 0)
(1.27861 -1.76419e-08 0)
(1.28848 5.37427e-09 0)
(1.28848 3.07386e-08 0)
(1.28848 -5.37913e-09 0)
(1.28848 -3.07292e-08 0)
(1.29802 4.40684e-09 0)
(1.29802 3.81584e-08 0)
(1.29802 -4.41202e-09 0)
(1.29802 -3.81493e-08 0)
(1.30724 6.23757e-09 0)
(1.30724 4.24525e-08 0)
(1.30724 -6.24305e-09 0)
(1.30724 -4.24437e-08 0)
(1.31611 1.09766e-08 0)
(1.31611 4.63545e-08 0)
(1.31611 -1.09823e-08 0)
(1.31611 -4.6346e-08 0)
(1.32464 1.73419e-08 0)
(1.32464 5.01452e-08 0)
(1.32464 -1.73479e-08 0)
(1.32464 -5.01371e-08 0)
(1.3328 2.34193e-08 0)
(1.3328 5.25562e-08 0)
(1.3328 -2.34256e-08 0)
(1.3328 -5.25484e-08 0)
(1.34058 2.83456e-08 0)
(1.34058 5.22372e-08 0)
(1.34058 -2.83521e-08 0)
(1.34058 -5.22298e-08 0)
(1.34798 3.31188e-08 0)
(1.34797 4.98095e-08 0)
(1.34798 -3.31254e-08 0)
(1.34798 -4.98025e-08 0)
(1.35496 3.79932e-08 0)
(1.35496 4.66497e-08 0)
(1.35496 -3.79999e-08 0)
(1.35496 -4.66431e-08 0)
(1.36153 4.40059e-08 0)
(1.36153 4.50282e-08 0)
(1.36153 -4.40125e-08 0)
(1.36153 -4.5022e-08 0)
(1.36766 5.07898e-08 0)
(1.36766 4.61137e-08 0)
(1.36766 -5.07962e-08 0)
(1.36766 -4.61077e-08 0)
(1.37333 5.82486e-08 0)
(1.37333 5.02054e-08 0)
(1.37333 -5.82546e-08 0)
(1.37333 -5.01996e-08 0)
(1.37853 6.75361e-08 0)
(1.37853 5.69846e-08 0)
(1.37853 -6.75416e-08 0)
(1.37853 -5.69791e-08 0)
(1.38323 8.05429e-08 0)
(1.38323 6.54292e-08 0)
(1.38323 -8.05482e-08 0)
(1.38323 -6.54241e-08 0)
(1.38742 9.69345e-08 0)
(1.38742 7.41293e-08 0)
(1.38742 -9.69393e-08 0)
(1.38742 -7.41248e-08 0)
(1.39108 1.07277e-07 0)
(1.39108 8.11731e-08 0)
(1.39108 -1.07282e-07 0)
(1.39108 -8.11673e-08 0)
(1.39418 1.09842e-07 0)
(1.39418 8.23633e-08 0)
(1.39418 -1.09845e-07 0)
(1.39418 -8.23573e-08 0)
(1.39671 9.81344e-08 0)
(1.39671 7.65306e-08 0)
(1.39671 -9.81375e-08 0)
(1.39671 -7.65255e-08 0)
(1.39864 7.67171e-08 0)
(1.39864 6.24103e-08 0)
(1.39864 -7.67195e-08 0)
(1.39864 -6.24065e-08 0)
(1.39996 4.98359e-08 0)
(1.39996 4.06161e-08 0)
(1.39996 -4.98387e-08 0)
(1.39996 -4.06155e-08 0)
(1.40063 1.75242e-08 0)
(1.40063 1.40861e-08 0)
(1.40063 -1.75237e-08 0)
(1.40063 -1.4085e-08 0)
)
;

boundaryField
{
    inlet
    {
        type            cyclic;
    }
    outlet
    {
        type            cyclic;
    }
    fixedWalls-bottom
    {
        type            noSlip;
    }
    fixedWalls-top
    {
        type            symmetry;
    }
    frontAndBack
    {
        type            empty;
    }
}


// ************************************************************************* //
