/*--------------------------------*- C++ -*----------------------------------*\
  =========                 |
  \\      /  F ield         | OpenFOAM: The Open Source CFD Toolbox
   \\    /   O peration     | Website:  https://openfoam.org
    \\  /    A nd           | Version:  10
     \\/     M anipulation  |
\*---------------------------------------------------------------------------*/
FoamFile
{
    format      ascii;
    class       volScalarField;
    location    "7500";
    object      omega;
}
// * * * * * * * * * * * * * * * * * * * * * * * * * * * * * * * * * * * * * //

dimensions      [0 0 -1 0 0 0 0];

internalField   nonuniform List<scalar> 
400
(
55065.5
55065.5
55065.5
55065.5
9030.05
9030.05
9030.05
9030.05
2977.79
2977.79
2977.79
2977.79
1384.96
1384.96
1384.96
1384.96
780.702
780.697
780.7
780.696
496.787
496.777
496.783
496.775
343.195
343.182
343.188
343.179
251.103
251.091
251.096
251.087
191.459
191.448
191.451
191.444
150.483
150.473
150.475
150.47
121.042
121.034
121.035
121.032
99.1971
99.1907
99.1904
99.1885
82.6012
82.5953
82.5943
82.5934
69.7498
69.7441
69.7426
69.7424
59.6353
59.6294
59.6276
59.6277
51.5626
51.5561
51.5541
51.5545
45.0407
45.0335
45.0311
45.0317
39.7153
39.7072
39.7044
39.7052
35.3258
35.3166
35.3133
35.3144
31.677
31.6668
31.663
31.6641
28.6206
28.6094
28.605
28.6063
26.0424
26.0301
26.0251
26.0265
23.8531
23.8398
23.8342
23.8357
21.9823
21.9682
21.9619
21.9634
20.374
20.3592
20.3522
20.3537
18.9833
18.968
18.9602
18.9615
17.7739
17.7582
17.7497
17.7507
16.7162
16.7004
16.6911
16.6918
15.7864
15.7707
15.7606
15.7606
14.9647
14.9495
14.9384
14.9376
14.2351
14.2207
14.2087
14.2068
13.5844
13.5709
13.5583
13.555
13.0015
12.9893
12.9761
12.9712
12.4775
12.4666
12.4531
12.4464
12.0047
11.9953
11.9816
11.9728
11.577
11.5689
11.5553
11.5444
11.1889
11.182
11.1688
11.1556
10.836
10.8301
10.8176
10.8019
10.5142
10.5091
10.4975
10.4795
10.2203
10.2158
10.205
10.1849
9.95114
9.94719
9.93699
9.91508
9.70405
9.7005
9.69073
9.66737
9.47656
9.47332
9.46387
9.43924
9.2664
9.26338
9.25417
9.22837
9.07139
9.06855
9.0595
9.03261
8.88945
8.88674
8.87778
8.84985
8.71849
8.71584
8.70693
8.678
8.55639
8.55378
8.54486
8.51496
8.40118
8.39858
8.38957
8.35874
8.25122
8.24864
8.23944
8.20768
8.1052
8.1027
8.09316
8.06048
7.96193
7.95955
7.94954
7.91594
7.82013
7.81793
7.8074
7.77286
7.67869
7.67666
7.66568
7.63018
7.53699
7.53506
7.52385
7.48731
7.39506
7.39316
7.38199
7.34432
7.25348
7.25157
7.24062
7.20179
7.11305
7.11114
7.10043
7.06046
6.9745
6.97272
6.962
6.92104
6.83837
6.83688
6.8258
6.78406
6.7049
6.70371
6.69219
6.64983
6.57409
6.57313
6.56134
6.51848
6.44588
6.44516
6.43318
6.39
6.32017
6.31949
6.30764
6.26425
6.19691
6.19567
6.18473
6.141
6.0762
6.07337
6.06437
6.01997
5.95851
5.95277
5.94643
5.90089
5.84513
5.8344
5.83079
5.78346
5.73021
5.71995
5.71662
5.66759
5.6167
5.60655
5.60331
5.55353
5.50443
5.49419
5.4912
5.44092
5.39304
5.38294
5.38034
5.32952
5.28292
5.2726
5.27046
5.21932
5.17412
5.16307
5.16143
5.11028
5.06652
5.05433
5.05319
5.00233
4.95978
4.94637
4.94573
4.89542
4.85321
4.83935
4.83911
4.78948
4.74678
4.73336
4.73317
4.68469
4.64068
4.62861
4.62767
4.58133
4.53502
4.52568
4.52256
4.47959
4.42788
4.42671
4.41874
4.37906
4.32752
4.33029
4.31411
4.28049
4.22882
4.23126
4.21636
4.18199
4.13174
4.13235
4.12137
4.08485
4.03678
4.03769
4.02376
3.99081
3.94454
3.93881
3.93248
3.89798
3.8534
3.85075
3.84109
3.80655
3.76508
3.75642
3.75649
3.71652
3.68451
3.66835
3.67286
3.62933
3.60143
3.5852
3.58909
3.54629
3.52101
3.50539
3.50879
3.46651
3.44345
3.42963
3.43164
3.39058
3.36843
3.35907
3.35572
3.31951
3.29417
3.29676
3.2809
3.25359
3.23152
3.23272
3.21779
3.19076
3.17654
3.17284
3.16346
3.13241
3.13085
3.11485
3.11884
3.0798
3.08707
3.07139
3.07525
3.03654
3.05085
3.03694
3.04014
3.00198
3.02147
3.01304
3.01475
2.97753
)
;

boundaryField
{
    inlet
    {
        type            cyclic;
    }
    outlet
    {
        type            cyclic;
    }
    fixedWalls-bottom
    {
        beta1           0.075;
        blended         0;
        type            omegaWallFunction;
        value           uniform 55065.5;
    }
    fixedWalls-top
    {
        type            symmetry;
    }
    frontAndBack
    {
        type            empty;
    }
}


// ************************************************************************* //
