/*--------------------------------*- C++ -*----------------------------------*\
  =========                 |
  \\      /  F ield         | OpenFOAM: The Open Source CFD Toolbox
   \\    /   O peration     | Website:  https://openfoam.org
    \\  /    A nd           | Version:  10
     \\/     M anipulation  |
\*---------------------------------------------------------------------------*/
FoamFile
{
    format      ascii;
    class       volScalarField;
    location    "7500";
    object      p;
}
// * * * * * * * * * * * * * * * * * * * * * * * * * * * * * * * * * * * * * //

dimensions      [0 2 -2 0 0 0 0];

internalField   nonuniform List<scalar> 
400
(
3.13457e-18
-6.67415e-16
-6.84848e-16
2.91069e-17
1.29936e-17
-6.67022e-16
-6.84919e-16
2.86986e-17
1.52728e-17
-6.666e-16
-6.85046e-16
2.82749e-17
1.54363e-17
-6.66175e-16
-6.85185e-16
2.77923e-17
1.53305e-17
-6.65653e-16
-6.85409e-16
2.72486e-17
1.54262e-17
-6.6507e-16
-6.85618e-16
2.66634e-17
1.58166e-17
-6.64685e-16
-6.85836e-16
2.61678e-17
1.63004e-17
-6.64345e-16
-6.86024e-16
2.5776e-17
1.69177e-17
-6.6393e-16
-6.86267e-16
2.5285e-17
1.76829e-17
-6.63527e-16
-6.86532e-16
2.47299e-17
1.82464e-17
-6.63181e-16
-6.86622e-16
2.41867e-17
1.85011e-17
-6.62874e-16
-6.86674e-16
2.38847e-17
1.89008e-17
-6.62732e-16
-6.86813e-16
2.3727e-17
1.93339e-17
-6.62724e-16
-6.86808e-16
2.36432e-17
1.97557e-17
-6.62707e-16
-6.86804e-16
2.33855e-17
2.00941e-17
-6.62633e-16
-6.86825e-16
2.32696e-17
2.01855e-17
-6.63043e-16
-6.86655e-16
2.37315e-17
1.98452e-17
-6.63681e-16
-6.85818e-16
2.42059e-17
1.93444e-17
-6.6421e-16
-6.84876e-16
2.46401e-17
1.88559e-17
-6.64655e-16
-6.83702e-16
2.47978e-17
1.83413e-17
-6.64607e-16
-6.82613e-16
2.44592e-17
1.8138e-17
-6.6359e-16
-6.81593e-16
2.30044e-17
1.7804e-17
-6.63114e-16
-6.80706e-16
2.20033e-17
1.70512e-17
-6.63001e-16
-6.79774e-16
2.18953e-17
1.59703e-17
-6.63546e-16
-6.78467e-16
2.24379e-17
1.47206e-17
-6.64142e-16
-6.77058e-16
2.28554e-17
1.33871e-17
-6.63952e-16
-6.75702e-16
2.29369e-17
1.23263e-17
-6.63365e-16
-6.74468e-16
2.22765e-17
1.17188e-17
-6.62392e-16
-6.73636e-16
2.12053e-17
1.10679e-17
-6.6179e-16
-6.72904e-16
2.06767e-17
1.0562e-17
-6.61207e-16
-6.72309e-16
1.99571e-17
1.00215e-17
-6.59785e-16
-6.72013e-16
1.88685e-17
8.84236e-18
-6.58497e-16
-6.71249e-16
1.80055e-17
6.96415e-18
-6.57253e-16
-6.70212e-16
1.73842e-17
5.84864e-18
-6.55494e-16
-6.69892e-16
1.62125e-17
4.72629e-18
-6.5302e-16
-6.69795e-16
1.5009e-17
3.6001e-18
-6.51372e-16
-6.69134e-16
1.37564e-17
2.29226e-18
-6.4974e-16
-6.685e-16
1.26735e-17
8.16198e-19
-6.47775e-16
-6.68268e-16
1.15513e-17
-4.63319e-19
-6.44986e-16
-6.67896e-16
9.52597e-18
-1.53519e-18
-6.41758e-16
-6.67397e-16
6.41761e-18
-3.28923e-18
-6.389e-16
-6.66362e-16
4.05252e-18
-4.81835e-18
-6.35832e-16
-6.657e-16
1.68887e-18
-5.97154e-18
-6.31696e-16
-6.65322e-16
-1.82626e-18
-7.40369e-18
-6.28941e-16
-6.64076e-16
-4.46842e-18
-9.46074e-18
-6.2509e-16
-6.62931e-16
-7.37987e-18
-1.1597e-17
-6.22507e-16
-6.61364e-16
-9.76461e-18
-1.33515e-17
-6.19608e-16
-6.60099e-16
-1.22358e-17
-1.59722e-17
-6.16455e-16
-6.58244e-16
-1.46657e-17
-1.83643e-17
-6.14115e-16
-6.56081e-16
-1.68466e-17
-2.04851e-17
-6.11087e-16
-6.54009e-16
-2.02244e-17
-2.29975e-17
-6.0731e-16
-6.51041e-16
-2.44085e-17
-2.55335e-17
-6.01966e-16
-6.48533e-16
-2.95685e-17
-2.81371e-17
-5.96216e-16
-6.46268e-16
-3.56276e-17
-3.10458e-17
-5.92103e-16
-6.43431e-16
-4.05294e-17
-3.34212e-17
-5.87871e-16
-6.40387e-16
-4.54191e-17
-3.69504e-17
-5.83377e-16
-6.36897e-16
-5.00512e-17
-4.07978e-17
-5.79299e-16
-6.33437e-16
-5.40906e-17
-4.46153e-17
-5.7487e-16
-6.29869e-16
-5.87228e-17
-4.73403e-17
-5.69142e-16
-6.27422e-16
-6.47063e-17
-4.94903e-17
-5.60595e-16
-6.25641e-16
-7.28802e-17
-5.16683e-17
-5.52132e-16
-6.25184e-16
-8.01475e-17
-5.38164e-17
-5.44413e-16
-6.24481e-16
-8.65834e-17
-5.54503e-17
-5.36693e-16
-6.23179e-16
-9.45221e-17
-5.80933e-17
-5.26633e-16
-6.21358e-16
-1.03461e-16
-6.15046e-17
-5.17643e-16
-6.18525e-16
-1.12022e-16
-6.63777e-17
-5.10018e-16
-6.15261e-16
-1.18488e-16
-7.17106e-17
-5.036e-16
-6.103e-16
-1.24353e-16
-7.9186e-17
-4.9849e-16
-6.03247e-16
-1.28943e-16
-8.80556e-17
-4.94061e-16
-5.94924e-16
-1.32954e-16
-9.60631e-17
-4.86934e-16
-5.88657e-16
-1.38397e-16
-1.03027e-16
-4.80612e-16
-5.83715e-16
-1.42532e-16
-1.09884e-16
-4.73712e-16
-5.78991e-16
-1.47575e-16
-1.15733e-16
-4.67046e-16
-5.74624e-16
-1.52264e-16
-1.20799e-16
-4.60633e-16
-5.70597e-16
-1.57586e-16
-1.2604e-16
-4.5643e-16
-5.65657e-16
-1.61177e-16
-1.30519e-16
-4.5338e-16
-5.6189e-16
-1.6493e-16
-1.32934e-16
-4.50997e-16
-5.58005e-16
-1.68781e-16
-1.35071e-16
-4.47177e-16
-5.54238e-16
-1.74096e-16
-1.37817e-16
-4.44927e-16
-5.51136e-16
-1.77298e-16
-1.40706e-16
-4.44652e-16
-5.47109e-16
-1.78903e-16
-1.42887e-16
-4.43173e-16
-5.44045e-16
-1.8103e-16
-1.43513e-16
-4.41072e-16
-5.4137e-16
-1.85383e-16
-1.46369e-16
-4.38462e-16
-5.36323e-16
-1.90623e-16
-1.50566e-16
-4.37881e-16
-5.30216e-16
-1.93873e-16
-1.55664e-16
-4.38558e-16
-5.23869e-16
-1.95551e-16
-1.60021e-16
-4.39717e-16
-5.17829e-16
-1.96515e-16
-1.63648e-16
-4.41743e-16
-5.1253e-16
-1.95955e-16
-1.66949e-16
-4.41297e-16
-5.08235e-16
-1.98646e-16
-1.69532e-16
-4.39657e-16
-5.03196e-16
-2.02935e-16
-1.7372e-16
-4.38545e-16
-4.97158e-16
-2.06486e-16
-1.77942e-16
-4.36629e-16
-4.91849e-16
-2.10066e-16
-1.81437e-16
-4.33179e-16
-4.86778e-16
-2.1595e-16
-1.85708e-16
-4.30971e-16
-4.80751e-16
-2.19974e-16
-1.89252e-16
-4.27776e-16
-4.75783e-16
-2.24773e-16
-1.91713e-16
-4.25519e-16
-4.71599e-16
-2.28866e-16
-1.94552e-16
-4.23239e-16
-4.6837e-16
-2.31551e-16
-1.98473e-16
-4.23321e-16
-4.63497e-16
-2.32496e-16
-2.00965e-16
-4.23262e-16
-4.5989e-16
-2.33148e-16
-2.01019e-16
-4.23222e-16
-4.58533e-16
-2.33189e-16
)
;

boundaryField
{
    inlet
    {
        type            cyclic;
    }
    outlet
    {
        type            cyclic;
    }
    fixedWalls-bottom
    {
        type            zeroGradient;
    }
    fixedWalls-top
    {
        type            symmetry;
    }
    frontAndBack
    {
        type            empty;
    }
}


// ************************************************************************* //
