/*--------------------------------*- C++ -*----------------------------------*\
  =========                 |
  \\      /  F ield         | OpenFOAM: The Open Source CFD Toolbox
   \\    /   O peration     | Website:  https://openfoam.org
    \\  /    A nd           | Version:  10
     \\/     M anipulation  |
\*---------------------------------------------------------------------------*/
FoamFile
{
    format      ascii;
    class       volScalarField;
    location    "2500";
    object      p;
}
// * * * * * * * * * * * * * * * * * * * * * * * * * * * * * * * * * * * * * //

dimensions      [0 2 -2 0 0 0 0];

internalField   nonuniform List<scalar> 
400
(
1.08684e-10
-1.09462e-06
-2.23183e-06
-1.13427e-06
-5.83234e-11
-1.09491e-06
-2.23132e-06
-1.13398e-06
-4.87526e-10
-1.09525e-06
-2.23083e-06
-1.13364e-06
-8.90071e-10
-1.09558e-06
-2.23045e-06
-1.13331e-06
-1.15726e-09
-1.0959e-06
-2.23019e-06
-1.13299e-06
-1.30893e-09
-1.09621e-06
-2.23004e-06
-1.13268e-06
-1.33528e-09
-1.09652e-06
-2.23e-06
-1.13237e-06
-1.24621e-09
-1.09682e-06
-2.23009e-06
-1.13207e-06
-1.01889e-09
-1.09713e-06
-2.23031e-06
-1.13176e-06
-6.60888e-10
-1.09744e-06
-2.23067e-06
-1.13145e-06
-1.53383e-10
-1.09776e-06
-2.23117e-06
-1.13113e-06
4.90645e-10
-1.09809e-06
-2.23182e-06
-1.13081e-06
1.28164e-09
-1.09842e-06
-2.2326e-06
-1.13048e-06
2.1962e-09
-1.09876e-06
-2.23351e-06
-1.13014e-06
3.22995e-09
-1.09909e-06
-2.23454e-06
-1.12982e-06
4.34114e-09
-1.09938e-06
-2.23565e-06
-1.12953e-06
5.50141e-09
-1.09959e-06
-2.23681e-06
-1.12932e-06
6.64015e-09
-1.09966e-06
-2.23794e-06
-1.12925e-06
7.69318e-09
-1.0995e-06
-2.23899e-06
-1.12941e-06
8.54697e-09
-1.099e-06
-2.23984e-06
-1.12991e-06
9.08533e-09
-1.09804e-06
-2.24037e-06
-1.13088e-06
9.14017e-09
-1.09647e-06
-2.24042e-06
-1.13245e-06
8.55929e-09
-1.09419e-06
-2.23984e-06
-1.13474e-06
7.15903e-09
-1.0911e-06
-2.23843e-06
-1.13783e-06
4.76605e-09
-1.08721e-06
-2.23603e-06
-1.14172e-06
1.17782e-09
-1.08258e-06
-2.23244e-06
-1.14636e-06
-3.78769e-09
-1.07738e-06
-2.22747e-06
-1.15157e-06
-1.04016e-08
-1.07179e-06
-2.22085e-06
-1.15716e-06
-1.89806e-08
-1.06599e-06
-2.21226e-06
-1.16297e-06
-2.90423e-08
-1.06025e-06
-2.20219e-06
-1.16871e-06
-3.64894e-08
-1.05601e-06
-2.19474e-06
-1.17296e-06
-3.85636e-08
-1.05617e-06
-2.19266e-06
-1.1728e-06
-3.77994e-08
-1.06018e-06
-2.19342e-06
-1.1688e-06
-3.63802e-08
-1.06507e-06
-2.19483e-06
-1.16391e-06
-3.44634e-08
-1.07032e-06
-2.19674e-06
-1.15867e-06
-3.18695e-08
-1.07607e-06
-2.19932e-06
-1.15292e-06
-2.84588e-08
-1.0825e-06
-2.20272e-06
-1.1465e-06
-2.39104e-08
-1.08978e-06
-2.20726e-06
-1.13923e-06
-1.7526e-08
-1.09818e-06
-2.21363e-06
-1.13083e-06
-1.00389e-08
-1.10719e-06
-2.22111e-06
-1.12184e-06
-8.97118e-09
-1.11379e-06
-2.22217e-06
-1.11524e-06
-2.18407e-08
-1.11804e-06
-2.20929e-06
-1.11101e-06
-4.35115e-08
-1.12288e-06
-2.18761e-06
-1.10618e-06
-6.65892e-08
-1.12865e-06
-2.16452e-06
-1.10041e-06
-9.00749e-08
-1.13502e-06
-2.14102e-06
-1.09405e-06
-1.1418e-07
-1.14165e-06
-2.11691e-06
-1.08743e-06
-1.3884e-07
-1.1485e-06
-2.09224e-06
-1.08058e-06
-1.63903e-07
-1.15565e-06
-2.06716e-06
-1.07343e-06
-1.89152e-07
-1.16281e-06
-2.0419e-06
-1.06629e-06
-2.14364e-07
-1.16912e-06
-2.01667e-06
-1.05998e-06
-2.39824e-07
-1.1749e-06
-1.9912e-06
-1.05421e-06
-2.66116e-07
-1.18103e-06
-1.96489e-06
-1.04809e-06
-2.93699e-07
-1.18763e-06
-1.9373e-06
-1.0415e-06
-3.23609e-07
-1.1948e-06
-1.90737e-06
-1.03434e-06
-3.56933e-07
-1.20121e-06
-1.87403e-06
-1.02794e-06
-3.92592e-07
-1.20663e-06
-1.83836e-06
-1.02253e-06
-4.28116e-07
-1.21295e-06
-1.80282e-06
-1.01622e-06
-4.64003e-07
-1.21863e-06
-1.76692e-06
-1.01055e-06
-5.02254e-07
-1.22198e-06
-1.72865e-06
-1.00721e-06
-5.4345e-07
-1.22415e-06
-1.68744e-06
-1.00505e-06
-5.87751e-07
-1.22611e-06
-1.64313e-06
-1.0031e-06
-6.35547e-07
-1.22816e-06
-1.59532e-06
-1.00107e-06
-6.88125e-07
-1.22973e-06
-1.54272e-06
-9.99509e-07
-7.48314e-07
-1.23157e-06
-1.48252e-06
-9.9768e-07
-8.12427e-07
-1.23457e-06
-1.41839e-06
-9.94681e-07
-8.69945e-07
-1.23719e-06
-1.36086e-06
-9.92069e-07
-9.22031e-07
-1.23906e-06
-1.30876e-06
-9.90213e-07
-9.79212e-07
-1.24021e-06
-1.25157e-06
-9.89068e-07
-1.04518e-06
-1.23528e-06
-1.18559e-06
-9.94009e-07
-1.1164e-06
-1.22314e-06
-1.11435e-06
-1.00617e-06
-1.19035e-06
-1.21036e-06
-1.04038e-06
-1.01897e-06
-1.26682e-06
-1.20317e-06
-9.63902e-07
-1.02616e-06
-1.34028e-06
-1.20423e-06
-8.90426e-07
-1.0251e-06
-1.40236e-06
-1.20353e-06
-8.28327e-07
-1.0258e-06
-1.45566e-06
-1.19305e-06
-7.75016e-07
-1.0363e-06
-1.50998e-06
-1.18084e-06
-7.20682e-07
-1.04852e-06
-1.56978e-06
-1.16765e-06
-6.60867e-07
-1.06172e-06
-1.62234e-06
-1.15054e-06
-6.08285e-07
-1.07885e-06
-1.66141e-06
-1.13286e-06
-5.69203e-07
-1.09655e-06
-1.69752e-06
-1.11553e-06
-5.3308e-07
-1.1139e-06
-1.7353e-06
-1.09956e-06
-4.95284e-07
-1.12989e-06
-1.77748e-06
-1.08543e-06
-4.53095e-07
-1.14404e-06
-1.82635e-06
-1.07193e-06
-4.04214e-07
-1.15754e-06
-1.88178e-06
-1.05824e-06
-3.48767e-07
-1.17123e-06
-1.94368e-06
-1.04638e-06
-2.86844e-07
-1.18309e-06
-2.00208e-06
-1.03258e-06
-2.28423e-07
-1.19689e-06
-2.04014e-06
-1.01462e-06
-1.90349e-07
-1.21487e-06
-2.06173e-06
-9.96778e-07
-1.68755e-07
-1.23273e-06
-2.0794e-06
-9.80106e-07
-1.51071e-07
-1.24941e-06
-2.09684e-06
-9.65166e-07
-1.33624e-07
-1.26437e-06
-2.1171e-06
-9.53051e-07
-1.1335e-07
-1.27649e-06
-2.14466e-06
-9.46221e-07
-8.57753e-08
-1.28333e-06
-2.1743e-06
-9.48584e-07
-5.6134e-08
-1.28096e-06
-2.19844e-06
-9.55366e-07
-3.19794e-08
-1.27418e-06
-2.21526e-06
-9.57645e-07
-1.51509e-08
-1.2719e-06
-2.22705e-06
-9.57127e-07
-3.35218e-09
-1.27243e-06
-2.23575e-06
-9.56082e-07
5.35382e-09
-1.27347e-06
-2.23934e-06
-9.54127e-07
8.94315e-09
-1.27543e-06
-2.23985e-06
-9.52604e-07
9.46474e-09
-1.27696e-06
-2.24022e-06
-9.51562e-07
9.83423e-09
-1.278e-06
)
;

boundaryField
{
    inlet
    {
        type            cyclic;
    }
    outlet
    {
        type            cyclic;
    }
    fixedWalls-bottom
    {
        type            zeroGradient;
    }
    fixedWalls-top
    {
        type            symmetry;
    }
    frontAndBack
    {
        type            empty;
    }
}


// ************************************************************************* //
