/*--------------------------------*- C++ -*----------------------------------*\
  =========                 |
  \\      /  F ield         | OpenFOAM: The Open Source CFD Toolbox
   \\    /   O peration     | Website:  https://openfoam.org
    \\  /    A nd           | Version:  10
     \\/     M anipulation  |
\*---------------------------------------------------------------------------*/
FoamFile
{
    format      ascii;
    class       surfaceScalarField;
    location    "2500";
    object      phi;
}
// * * * * * * * * * * * * * * * * * * * * * * * * * * * * * * * * * * * * * //

dimensions      [0 3 -1 0 0 0 0];

internalField   nonuniform List<scalar> 
696
(
7.28869e-05
-2.16342e-09
7.28874e-05
-5.55363e-10
7.28862e-05
1.22764e-09
5.56768e-10
0.0002221
-5.43177e-09
0.000222102
-2.24297e-09
0.000222098
4.49312e-09
2.24696e-09
0.000376909
-1.03845e-08
0.000376912
-5.09922e-09
0.000376907
9.46075e-09
5.10581e-09
0.000537459
-1.67711e-08
0.000537463
-9.12499e-09
0.000537457
1.58443e-08
9.13406e-09
0.000703899
-2.42439e-08
0.000703904
-1.43129e-08
0.000703896
2.33318e-08
1.43245e-08
0.000876377
-3.2513e-08
0.000876383
-2.06282e-08
0.000876375
3.15988e-08
2.06422e-08
0.00105505
-4.11915e-08
0.00105505
-2.80353e-08
0.00105504
4.02922e-08
2.80517e-08
0.00124006
-4.99501e-08
0.00124007
-3.64722e-08
0.00124006
4.90498e-08
3.64909e-08
0.00143157
-5.83648e-08
0.00143158
-4.5888e-08
0.00143157
5.74798e-08
4.59091e-08
0.00162972
-6.60725e-08
0.00162973
-5.62121e-08
0.00162972
6.51878e-08
5.62355e-08
0.00183467
-7.26231e-08
0.00183468
-6.74002e-08
0.00183467
7.17537e-08
6.7426e-08
0.00204655
-7.7637e-08
0.00204656
-7.93969e-08
0.00204656
7.67688e-08
7.9425e-08
0.0022655
-8.0664e-08
0.00226551
-9.21895e-08
0.00226551
7.98113e-08
9.22199e-08
0.00249164
-8.13464e-08
0.00249165
-1.05759e-07
0.00249165
8.04956e-08
1.05792e-07
0.00272508
-7.9288e-08
0.00272509
-1.20133e-07
0.00272509
7.84526e-08
1.20168e-07
0.0029659
-7.42267e-08
0.00296591
-1.35318e-07
0.00296592
7.33939e-08
1.35355e-07
0.00321418
-6.59174e-08
0.0032142
-1.51343e-07
0.0032142
6.50999e-08
1.51382e-07
0.00346997
-5.43189e-08
0.00346999
-1.68166e-07
0.00347
5.35045e-08
1.68208e-07
0.00373331
-3.94935e-08
0.00373332
-1.85712e-07
0.00373334
3.86941e-08
1.85756e-07
0.0040042
-2.18113e-08
0.00400421
-2.03757e-07
0.00400423
2.10155e-08
2.03803e-07
0.00428264
-1.86534e-09
0.00428266
-2.21974e-07
0.00428268
1.08441e-09
2.22022e-07
0.00456862
1.93135e-08
0.00456864
-2.39827e-07
0.00456866
-2.00906e-08
2.39877e-07
0.00486213
4.03863e-08
0.00486214
-2.56658e-07
0.00486217
-4.11489e-08
2.5671e-07
0.00516312
5.95443e-08
0.00516314
-2.71643e-07
0.00516316
-6.03027e-08
2.71697e-07
0.00547159
7.46253e-08
0.0054716
-2.83964e-07
0.00547162
-7.53694e-08
2.8402e-07
0.00578751
8.29428e-08
0.00578752
-2.9279e-07
0.00578753
-8.36826e-08
2.92848e-07
0.00611087
8.1456e-08
0.00611088
-2.97422e-07
0.00611087
-8.21818e-08
2.97482e-07
0.00644168
6.67014e-08
0.00644168
-2.97147e-07
0.00644167
-6.74228e-08
2.97208e-07
0.00677997
3.50892e-08
0.00677996
-2.91216e-07
0.00677993
-3.57969e-08
2.91279e-07
0.00712575
-1.70584e-08
0.00712574
-2.78525e-07
0.00712569
1.63554e-08
2.7859e-07
0.0074791
-8.37318e-08
0.00747908
-2.59227e-07
0.00747902
8.30421e-08
2.59294e-07
0.00784017
-1.52004e-07
0.00784015
-2.39818e-07
0.00784008
1.51319e-07
2.39887e-07
0.00820913
-2.1561e-07
0.00820911
-2.24998e-07
0.00820905
2.14939e-07
2.25068e-07
0.00858606
-2.72545e-07
0.00858605
-2.12229e-07
0.00858599
2.71878e-07
2.123e-07
0.00897105
-3.20728e-07
0.00897104
-1.98952e-07
0.00897099
3.20074e-07
1.99025e-07
0.00936417
-3.57786e-07
0.00936416
-1.82851e-07
0.00936412
3.57137e-07
1.82924e-07
0.0097655
-3.80599e-07
0.00976548
-1.62242e-07
0.00976546
3.79963e-07
1.62317e-07
0.0101751
-3.8508e-07
0.0101751
-1.36325e-07
0.0101751
3.84449e-07
1.36401e-07
0.010593
-3.65609e-07
0.010593
-1.05827e-07
0.010593
3.64991e-07
1.05904e-07
0.0110193
-3.15655e-07
0.0110193
-7.32537e-08
0.0110193
3.15042e-07
7.33318e-08
0.011454
-2.44137e-07
0.0114539
-3.54116e-08
0.011454
2.43536e-07
3.54908e-08
0.0118973
-1.79253e-07
0.0118972
9.30129e-09
0.0118973
1.78658e-07
-9.22129e-09
0.0123495
-1.34914e-07
0.0123495
5.46887e-08
0.0123495
1.3433e-07
-5.46077e-08
0.0128109
-1.0749e-07
0.0128108
9.63886e-08
0.0128108
1.06912e-07
-9.63068e-08
0.0132814
-9.34092e-08
0.0132813
1.31847e-07
0.0132814
9.28424e-08
-1.31764e-07
0.0137612
-8.9223e-08
0.0137612
1.60348e-07
0.0137612
8.86618e-08
-1.60265e-07
0.0142505
-9.15621e-08
0.0142505
1.82053e-07
0.0142505
9.10121e-08
-1.81969e-07
0.0147493
-9.75324e-08
0.0147493
1.97545e-07
0.0147493
9.69882e-08
-1.97461e-07
0.0152577
-1.04467e-07
0.0152577
2.08094e-07
0.0152577
1.03934e-07
-2.08009e-07
0.0157758
-1.09545e-07
0.0157758
2.17452e-07
0.0157758
1.09017e-07
-2.17367e-07
0.0163037
-1.10664e-07
0.0163037
2.28296e-07
0.0163037
1.10147e-07
-2.2821e-07
0.0168414
-1.07066e-07
0.0168414
2.40484e-07
0.0168414
1.06556e-07
-2.40397e-07
0.0173891
-9.83377e-08
0.017389
2.53654e-07
0.0173891
9.7838e-08
-2.53567e-07
0.0179468
-8.60877e-08
0.0179468
2.65552e-07
0.0179468
8.55939e-08
-2.65465e-07
0.0185146
-7.49042e-08
0.0185146
2.77198e-07
0.0185146
7.44211e-08
-2.7711e-07
0.0190928
-6.70215e-08
0.0190928
2.91253e-07
0.0190928
6.65444e-08
-2.91165e-07
0.0196813
-5.72822e-08
0.0196813
3.0401e-07
0.0196813
5.68156e-08
-3.03921e-07
0.0202804
-4.20981e-08
0.0202803
3.16574e-07
0.0202804
4.16375e-08
-3.16486e-07
0.0208901
-2.28495e-08
0.02089
3.34082e-07
0.0208901
2.23992e-08
-3.33993e-07
0.0215105
-8.52764e-10
0.0215105
3.57099e-07
0.0215105
4.08572e-10
-3.57009e-07
0.0221419
2.30664e-08
0.0221419
3.83806e-07
0.0221419
-2.35004e-08
-3.83716e-07
0.0227844
4.78786e-08
0.0227843
4.10735e-07
0.0227844
-4.83064e-08
-4.10645e-07
0.0234379
7.14845e-08
0.0234379
4.36105e-07
0.0234379
-7.19021e-08
-4.36015e-07
0.0241028
8.22452e-08
0.0241028
4.5646e-07
0.0241028
-8.26564e-08
-4.5637e-07
0.024779
7.43407e-08
0.024779
4.67052e-07
0.024779
-7.47419e-08
-4.66961e-07
0.0254667
7.27348e-08
0.0254667
4.71217e-07
0.0254667
-7.31292e-08
-4.71126e-07
0.0261659
9.80215e-08
0.0261659
4.72349e-07
0.0261659
-9.84058e-08
-4.72259e-07
0.0268768
1.39238e-07
0.0268768
4.64947e-07
0.0268768
-1.39616e-07
-4.64856e-07
0.0275993
1.75484e-07
0.0275993
4.56467e-07
0.0275994
-1.75852e-07
-4.56376e-07
0.0283336
1.96103e-07
0.0283336
4.58373e-07
0.0283336
-1.96463e-07
-4.58282e-07
0.0290796
1.9916e-07
0.0290796
4.6537e-07
0.0290796
-1.9951e-07
-4.65279e-07
0.0298372
1.81243e-07
0.0298372
4.62289e-07
0.0298372
-1.81586e-07
-4.62199e-07
0.0306066
1.49242e-07
0.0306066
4.25407e-07
0.0306066
-1.49574e-07
-4.25317e-07
0.0313875
1.29654e-07
0.0313876
3.63536e-07
0.0313875
-1.29978e-07
-3.63446e-07
0.0321799
1.3504e-07
0.03218
3.11607e-07
0.03218
-1.35353e-07
-3.11518e-07
0.0329837
1.49372e-07
0.0329838
2.6395e-07
0.0329838
-1.49676e-07
-2.63861e-07
0.0337987
1.37262e-07
0.0337988
2.1514e-07
0.0337988
-1.37555e-07
-2.15053e-07
0.0346248
1.07619e-07
0.0346248
1.79516e-07
0.0346248
-1.07902e-07
-1.7943e-07
0.0354615
9.49844e-08
0.0354615
1.61716e-07
0.0354615
-9.52562e-08
-1.61631e-07
0.0363087
9.77155e-08
0.0363087
1.65616e-07
0.0363087
-9.79773e-08
-1.65532e-07
0.037166
1.14461e-07
0.0371659
1.865e-07
0.037166
-1.14711e-07
-1.86419e-07
0.0380328
1.41694e-07
0.0380328
2.12298e-07
0.0380328
-1.41933e-07
-2.12218e-07
0.0389087
1.69307e-07
0.0389086
2.30774e-07
0.0389087
-1.69534e-07
-2.30696e-07
0.0397928
1.89473e-07
0.0397928
2.32509e-07
0.0397928
-1.89688e-07
-2.32433e-07
0.0406845
1.78272e-07
0.0406845
1.97673e-07
0.0406845
-1.78473e-07
-1.97599e-07
0.0415826
1.23667e-07
0.0415827
1.34649e-07
0.0415826
-1.23855e-07
-1.34579e-07
0.0424862
7.21336e-08
0.0424862
7.68478e-08
0.0424862
-7.23077e-08
-7.67807e-08
0.0433939
4.93822e-08
0.0433939
3.96973e-08
0.0433939
-4.95428e-08
-3.96337e-08
0.0443043
4.05079e-08
0.0443043
2.97636e-08
0.0443043
-4.06537e-08
-2.97037e-08
0.0452159
3.89582e-08
0.0452158
4.40817e-08
0.0452158
-3.90901e-08
-4.4026e-08
0.0461266
4.17637e-08
0.0461266
7.34553e-08
0.0461266
-4.18809e-08
-7.34038e-08
0.0470345
2.95416e-08
0.0470345
1.03758e-07
0.0470345
-2.96453e-08
-1.03711e-07
0.0479373
5.6986e-09
0.0479373
1.05708e-07
0.0479373
-5.78911e-09
-1.05664e-07
0.0488325
-1.14956e-08
0.0488326
7.378e-08
0.0488325
1.14177e-08
-7.37396e-08
0.0497175
-1.46255e-08
0.0497175
4.1363e-08
0.0497175
1.45613e-08
-4.1327e-08
0.0505893
-1.09438e-08
0.0505893
1.73349e-08
0.0505893
1.08932e-08
-1.73047e-08
0.051445
-1.23254e-08
0.051445
-4.81887e-10
0.051445
1.2289e-08
5.05832e-10
0.0522815
-1.06819e-08
0.0522815
-7.39539e-09
0.0522815
1.06602e-08
7.41275e-09
0.0530957
-4.30338e-09
0.0530957
-6.36978e-09
0.0530957
4.29488e-09
6.37827e-09
0.0538842
0.0538842
0.0538842
)
;

boundaryField
{
    inlet
    {
        type            cyclic;
        value           nonuniform List<scalar> 
100
(
-0.0538842
-0.0530957
-0.0522815
-0.051445
-0.0505893
-0.0497175
-0.0488325
-0.0479373
-0.0470345
-0.0461266
-0.0452159
-0.0443043
-0.0433939
-0.0424861
-0.0415826
-0.0406845
-0.0397928
-0.0389087
-0.0380328
-0.037166
-0.0363087
-0.0354615
-0.0346247
-0.0337987
-0.0329837
-0.0321799
-0.0313875
-0.0306066
-0.0298372
-0.0290796
-0.0283336
-0.0275994
-0.0268768
-0.0261659
-0.0254667
-0.024779
-0.0241028
-0.023438
-0.0227844
-0.022142
-0.0215106
-0.0208901
-0.0202804
-0.0196813
-0.0190928
-0.0185147
-0.0179468
-0.0173891
-0.0168414
-0.0163037
-0.0157758
-0.0152577
-0.0147493
-0.0142505
-0.0137612
-0.0132814
-0.0128109
-0.0123496
-0.0118973
-0.011454
-0.0110194
-0.0105931
-0.0101751
-0.00976548
-0.00936414
-0.008971
-0.008586
-0.00820906
-0.0078401
-0.00747904
-0.0071257
-0.00677993
-0.00644167
-0.00611087
-0.00578752
-0.00547161
-0.00516314
-0.00486215
-0.00456865
-0.00428266
-0.00400421
-0.00373332
-0.00346998
-0.00321419
-0.0029659
-0.00272508
-0.00249164
-0.0022655
-0.00204654
-0.00183466
-0.00162971
-0.00143156
-0.00124005
-0.00105504
-0.000876369
-0.000703891
-0.000537453
-0.000376904
-0.000222097
-7.28857e-05
)
;
    }
    outlet
    {
        type            cyclic;
        value           nonuniform List<scalar> 
100
(
0.0538842
0.0530957
0.0522815
0.051445
0.0505893
0.0497175
0.0488325
0.0479373
0.0470345
0.0461266
0.0452159
0.0443043
0.0433939
0.0424861
0.0415826
0.0406845
0.0397928
0.0389087
0.0380328
0.037166
0.0363087
0.0354615
0.0346247
0.0337987
0.0329837
0.0321799
0.0313875
0.0306066
0.0298372
0.0290796
0.0283336
0.0275994
0.0268768
0.0261659
0.0254667
0.024779
0.0241028
0.023438
0.0227844
0.022142
0.0215106
0.0208901
0.0202804
0.0196813
0.0190928
0.0185147
0.0179468
0.0173891
0.0168414
0.0163037
0.0157758
0.0152577
0.0147493
0.0142505
0.0137612
0.0132814
0.0128109
0.0123496
0.0118973
0.011454
0.0110194
0.0105931
0.0101751
0.00976548
0.00936414
0.008971
0.008586
0.00820906
0.0078401
0.00747904
0.0071257
0.00677993
0.00644167
0.00611087
0.00578752
0.00547161
0.00516314
0.00486215
0.00456865
0.00428266
0.00400421
0.00373332
0.00346998
0.00321419
0.0029659
0.00272508
0.00249164
0.0022655
0.00204654
0.00183466
0.00162971
0.00143156
0.00124005
0.00105504
0.000876369
0.000703891
0.000537453
0.000376904
0.000222097
7.28857e-05
)
;
    }
    fixedWalls-bottom
    {
        type            calculated;
        value           uniform 0;
    }
    fixedWalls-top
    {
        type            symmetry;
        value           uniform 0;
    }
    frontAndBack
    {
        type            empty;
        value           nonuniform List<scalar> 0();
    }
}


// ************************************************************************* //
