/*--------------------------------*- C++ -*----------------------------------*\
  =========                 |
  \\      /  F ield         | OpenFOAM: The Open Source CFD Toolbox
   \\    /   O peration     | Website:  https://openfoam.org
    \\  /    A nd           | Version:  10
     \\/     M anipulation  |
\*---------------------------------------------------------------------------*/
FoamFile
{
    format      ascii;
    class       volSymmTensorField;
    location    "2500";
    object      R;
}
// * * * * * * * * * * * * * * * * * * * * * * * * * * * * * * * * * * * * * //

dimensions      [0 2 -2 0 0 0 0];

internalField   nonuniform List<symmTensor> 
400
(
(4.96326e-10 -1.27876e-13 -0 4.96326e-10 -0 4.96326e-10)
(4.96099e-10 -1.27821e-13 -0 4.96099e-10 -0 4.96099e-10)
(4.96311e-10 -1.27875e-13 -0 4.96311e-10 -0 4.96311e-10)
(4.97132e-10 -1.28083e-13 -0 4.97132e-10 -0 4.97132e-10)
(1.4892e-08 -2.23251e-11 -0 1.4892e-08 -0 1.4892e-08)
(1.48852e-08 -2.23154e-11 -0 1.48852e-08 -0 1.48852e-08)
(1.48916e-08 -2.23249e-11 -0 1.48916e-08 -0 1.48916e-08)
(1.49162e-08 -2.23615e-11 -0 1.49162e-08 -0 1.49162e-08)
(1.05477e-07 -4.67854e-10 -0 1.05477e-07 -0 1.05477e-07)
(1.05429e-07 -4.6765e-10 -0 1.05429e-07 -0 1.05429e-07)
(1.05474e-07 -4.67848e-10 -0 1.05474e-07 -0 1.05474e-07)
(1.05648e-07 -4.68616e-10 -0 1.05648e-07 -0 1.05648e-07)
(3.83509e-07 -3.60357e-09 -0 3.83509e-07 -0 3.83509e-07)
(3.83333e-07 -3.60198e-09 -0 3.83333e-07 -0 3.83333e-07)
(3.83497e-07 -3.60352e-09 -0 3.83497e-07 -0 3.83497e-07)
(3.84128e-07 -3.60942e-09 -0 3.84128e-07 -0 3.84128e-07)
(9.92381e-07 -1.64009e-08 -0 9.92381e-07 -0 9.92381e-07)
(9.91928e-07 -1.63937e-08 -0 9.91928e-07 -0 9.91928e-07)
(9.92351e-07 -1.64007e-08 -0 9.92351e-07 -0 9.92351e-07)
(9.93983e-07 -1.64276e-08 -0 9.93983e-07 -0 9.93983e-07)
(2.10159e-06 -5.44471e-08 -0 2.10159e-06 -0 2.10159e-06)
(2.10064e-06 -5.44231e-08 -0 2.10064e-06 -0 2.10064e-06)
(2.10154e-06 -5.44465e-08 -0 2.10154e-06 -0 2.10154e-06)
(2.10499e-06 -5.45356e-08 -0 2.10499e-06 -0 2.10499e-06)
(3.9049e-06 -1.46772e-07 -0 3.9049e-06 -0 3.9049e-06)
(3.90314e-06 -1.46707e-07 -0 3.90314e-06 -0 3.90314e-06)
(3.90482e-06 -1.46771e-07 -0 3.90482e-06 -0 3.90482e-06)
(3.91124e-06 -1.47012e-07 -0 3.91124e-06 -0 3.91124e-06)
(6.61936e-06 -3.41447e-07 -0 6.61936e-06 -0 6.61936e-06)
(6.6164e-06 -3.41299e-07 -0 6.6164e-06 -0 6.6164e-06)
(6.61927e-06 -3.41449e-07 -0 6.61927e-06 -0 6.61927e-06)
(6.63017e-06 -3.42009e-07 -0 6.63017e-06 -0 6.63017e-06)
(1.04843e-05 -7.11652e-07 -0 1.04843e-05 -0 1.04843e-05)
(1.04797e-05 -7.11353e-07 -0 1.04797e-05 -0 1.04797e-05)
(1.04843e-05 -7.11671e-07 -0 1.04843e-05 -0 1.04843e-05)
(1.05015e-05 -7.12842e-07 -0 1.05015e-05 -0 1.05015e-05)
(1.57594e-05 -1.36164e-06 -0 1.57594e-05 -0 1.57594e-05)
(1.57526e-05 -1.3611e-06 -0 1.57526e-05 -0 1.57526e-05)
(1.57596e-05 -1.36172e-06 -0 1.57596e-05 -0 1.57596e-05)
(1.57856e-05 -1.36397e-06 -0 1.57856e-05 -0 1.57856e-05)
(2.2722e-05 -2.43172e-06 -0 2.2722e-05 -0 2.2722e-05)
(2.27123e-05 -2.43082e-06 -0 2.27123e-05 -0 2.27123e-05)
(2.27226e-05 -2.43198e-06 -0 2.27226e-05 -0 2.27226e-05)
(2.27602e-05 -2.436e-06 -0 2.27602e-05 -0 2.27602e-05)
(3.1662e-05 -4.10097e-06 -0 3.16621e-05 -0 3.1662e-05)
(3.16489e-05 -4.09964e-06 -0 3.16489e-05 -0 3.16489e-05)
(3.16634e-05 -4.10169e-06 -0 3.16634e-05 -0 3.16634e-05)
(3.1716e-05 -4.10848e-06 -0 3.1716e-05 -0 3.1716e-05)
(4.28762e-05 -6.58653e-06 -0 4.28762e-05 -0 4.28762e-05)
(4.28588e-05 -6.58481e-06 -0 4.28588e-05 -0 4.28588e-05)
(4.28789e-05 -6.5883e-06 -0 4.28789e-05 -0 4.28789e-05)
(4.29503e-05 -6.59922e-06 -0 4.29503e-05 -0 4.29503e-05)
(5.66588e-05 -1.01381e-05 -0 5.66588e-05 -0 5.66588e-05)
(5.66363e-05 -1.01362e-05 -0 5.66364e-05 -0 5.66363e-05)
(5.66635e-05 -1.0142e-05 -0 5.66635e-05 -0 5.66635e-05)
(5.67582e-05 -1.01588e-05 -0 5.67582e-05 -0 5.67582e-05)
(7.32914e-05 -1.5027e-05 -0 7.32914e-05 -0 7.32914e-05)
(7.3263e-05 -1.50257e-05 -0 7.3263e-05 -0 7.3263e-05)
(7.3299e-05 -1.50349e-05 -0 7.3299e-05 -0 7.3299e-05)
(7.3422e-05 -1.50599e-05 -0 7.34219e-05 -0 7.3422e-05)
(9.30301e-05 -2.15304e-05 -0 9.30301e-05 -0 9.30301e-05)
(9.29947e-05 -2.15309e-05 -0 9.29948e-05 -0 9.29947e-05)
(9.30416e-05 -2.15454e-05 -0 9.30416e-05 -0 9.30416e-05)
(9.31984e-05 -2.15812e-05 -0 9.31983e-05 -0 9.31983e-05)
(0.000116092 -2.99116e-05 -0 0.000116092 -0 0.000116092)
(0.000116048 -2.99158e-05 -0 0.000116048 -0 0.000116048)
(0.000116108 -2.9938e-05 -0 0.000116108 -0 0.000116108)
(0.000116305 -2.99879e-05 -0 0.000116305 -0 0.000116305)
(0.00014264 -4.03987e-05 -0 0.00014264 -0 0.00014264)
(0.000142587 -4.04091e-05 -0 0.000142587 -0 0.000142587)
(0.000142662 -4.04423e-05 -0 0.000142662 -0 0.000142662)
(0.000142905 -4.05099e-05 -0 0.000142905 -0 0.000142905)
(0.000172773 -5.31639e-05 -0 0.000172773 -0 0.000172773)
(0.000172707 -5.31837e-05 -0 0.000172708 -0 0.000172707)
(0.000172801 -5.32321e-05 -0 0.000172801 -0 0.000172801)
(0.000173096 -5.33216e-05 -0 0.000173096 -0 0.000173096)
(0.000206511 -6.83075e-05 -0 0.000206511 -0 0.000206511)
(0.00020643 -6.83398e-05 -0 0.00020643 -0 0.00020643)
(0.000206543 -6.84086e-05 -0 0.000206544 -0 0.000206544)
(0.000206898 -6.85249e-05 -0 0.000206898 -0 0.000206898)
(0.00024379 -8.58462e-05 -0 0.00024379 -0 0.00024379)
(0.00024369 -8.58934e-05 -0 0.00024369 -0 0.00024369)
(0.000243825 -8.59889e-05 -0 0.000243826 -0 0.000243825)
(0.000244246 -8.61374e-05 -0 0.000244245 -0 0.000244246)
(0.000284459 -0.000105709 -0 0.000284459 -0 0.000284459)
(0.000284335 -0.000105772 -0 0.000284335 -0 0.000284335)
(0.000284493 -0.000105901 -0 0.000284494 -0 0.000284493)
(0.000284985 -0.000106088 -0 0.000284985 -0 0.000284985)
(0.000328281 -0.000127739 -0 0.000328281 -0 0.000328281)
(0.000328127 -0.000127818 -0 0.000328128 -0 0.000328127)
(0.000328308 -0.000127986 -0 0.000328309 -0 0.000328309)
(0.000328877 -0.000128217 -0 0.000328877 -0 0.000328877)
(0.000374942 -0.000151705 -0 0.000374941 -0 0.000374941)
(0.000374751 -0.000151796 -0 0.000374751 -0 0.000374751)
(0.000374953 -0.000152007 -0 0.000374954 -0 0.000374953)
(0.000375603 -0.00015229 -0 0.000375602 -0 0.000375602)
(0.000424056 -0.000177312 -0 0.000424055 -0 0.000424055)
(0.000423821 -0.000177407 -0 0.000423822 -0 0.000423822)
(0.000424041 -0.000177662 -0 0.000424042 -0 0.000424041)
(0.000424773 -0.000178008 -0 0.000424773 -0 0.000424773)
(0.000475186 -0.000204219 -0 0.000475186 -0 0.000475186)
(0.000474901 -0.000204309 -0 0.000474901 -0 0.000474901)
(0.000475133 -0.000204607 -0 0.000475134 -0 0.000475133)
(0.000475948 -0.000205027 -0 0.000475948 -0 0.000475948)
(0.000527857 -0.000232062 -0 0.000527857 -0 0.000527857)
(0.000527516 -0.000232134 -0 0.000527516 -0 0.000527516)
(0.000527753 -0.00023247 -0 0.000527753 -0 0.000527753)
(0.000528647 -0.000232978 -0 0.000528647 -0 0.000528647)
(0.000581572 -0.000260467 -0 0.000581573 -0 0.000581573)
(0.00058117 -0.000260509 -0 0.00058117 -0 0.00058117)
(0.000581405 -0.000260876 -0 0.000581404 -0 0.000581404)
(0.00058237 -0.000261482 -0 0.00058237 -0 0.00058237)
(0.000635832 -0.000289069 -0 0.000635834 -0 0.000635833)
(0.000635366 -0.00028907 -0 0.000635365 -0 0.000635366)
(0.000635588 -0.000289459 -0 0.000635586 -0 0.000635587)
(0.000636612 -0.000290169 -0 0.000636612 -0 0.000636612)
(0.000690148 -0.000317528 -0 0.000690151 -0 0.000690149)
(0.000689616 -0.000317479 -0 0.000689615 -0 0.000689616)
(0.000689814 -0.000317878 -0 0.000689811 -0 0.000689813)
(0.00069088 -0.000318704 -0 0.000690881 -0 0.000690881)
(0.000744054 -0.000345588 -0 0.000744059 -0 0.000744056)
(0.000743457 -0.000345487 -0 0.000743456 -0 0.000743457)
(0.00074362 -0.000345783 -0 0.000743615 -0 0.000743618)
(0.000744707 -0.00034629 -0 0.000744709 -0 0.000744708)
(0.000797128 -0.000370669 -0 0.000797134 -0 0.000797131)
(0.000796468 -0.00037036 -0 0.000796466 -0 0.000796467)
(0.000796589 -0.000370416 -0 0.000796584 -0 0.000796587)
(0.000797698 -0.000370933 -0 0.000797699 -0 0.000797698)
(0.000849115 -0.000394851 -0 0.000849121 -0 0.000849118)
(0.0008484 -0.000394517 -0 0.000848398 -0 0.000848399)
(0.000848485 -0.000394555 -0 0.00084848 -0 0.000848482)
(0.000849613 -0.000395081 -0 0.000849614 -0 0.000849613)
(0.000899782 -0.000418438 -0 0.000899787 -0 0.000899784)
(0.000899018 -0.000418081 -0 0.000899017 -0 0.000899017)
(0.000899071 -0.000418104 -0 0.000899066 -0 0.000899068)
(0.000900216 -0.000418637 -0 0.000900218 -0 0.000900217)
(0.000948917 -0.000441358 -0 0.000948922 -0 0.000948919)
(0.000948109 -0.00044098 -0 0.000948108 -0 0.000948108)
(0.000948134 -0.000440989 -0 0.000948129 -0 0.000948131)
(0.000949298 -0.000441529 -0 0.000949299 -0 0.000949299)
(0.000996333 -0.000463582 -0 0.000996337 -0 0.000996335)
(0.000995482 -0.000463183 -0 0.00099548 -0 0.000995481)
(0.000995483 -0.00046318 -0 0.000995479 -0 0.000995481)
(0.000996671 -0.000463726 -0 0.000996673 -0 0.000996672)
(0.00104186 -0.000485134 -0 0.00104187 -0 0.00104187)
(0.00104097 -0.000484715 -0 0.00104097 -0 0.00104097)
(0.00104095 -0.000484699 -0 0.00104095 -0 0.00104095)
(0.00104217 -0.00048525 -0 0.00104217 -0 0.00104217)
(0.00108536 -0.000506107 -0 0.00108536 -0 0.00108536)
(0.00108443 -0.000505668 -0 0.00108443 -0 0.00108443)
(0.00108439 -0.000505638 -0 0.00108439 -0 0.00108439)
(0.00108565 -0.000506194 -0 0.00108565 -0 0.00108565)
(0.00112668 -0.00052667 -0 0.00112667 -0 0.00112667)
(0.0011257 -0.000526209 -0 0.0011257 -0 0.0011257)
(0.00112565 -0.000526166 -0 0.00112565 -0 0.00112565)
(0.00112697 -0.000526722 -0 0.00112697 -0 0.00112697)
(0.00116566 -0.000547059 -0 0.00116566 -0 0.00116566)
(0.00116465 -0.000546572 -0 0.00116464 -0 0.00116464)
(0.00116458 -0.000546518 -0 0.00116459 -0 0.00116459)
(0.00116598 -0.00054707 -0 0.00116598 -0 0.00116598)
(0.00120215 -0.00056672 -0 0.00120214 -0 0.00120214)
(0.00120108 -0.000566308 -0 0.00120108 -0 0.00120108)
(0.00120103 -0.000566538 -0 0.00120104 -0 0.00120103)
(0.00120252 -0.000567524 -0 0.00120252 -0 0.00120252)
(0.00123596 -0.00058134 -0 0.00123596 -0 0.00123596)
(0.00123486 -0.000580911 -0 0.00123485 -0 0.00123486)
(0.00123481 -0.000581131 -0 0.00123481 -0 0.00123481)
(0.0012364 -0.000582983 -0 0.00123641 -0 0.0012364)
(0.00126719 -0.000594808 -0 0.00126718 -0 0.00126718)
(0.00126604 -0.000594364 -0 0.00126604 -0 0.00126604)
(0.00126599 -0.000594584 -0 0.00126599 -0 0.00126599)
(0.00126765 -0.00059649 -0 0.00126766 -0 0.00126766)
(0.00129585 -0.000607046 -0 0.00129585 -0 0.00129585)
(0.00129468 -0.000606588 -0 0.00129467 -0 0.00129468)
(0.00129462 -0.000606807 -0 0.00129462 -0 0.00129462)
(0.00129634 -0.000608798 -0 0.00129635 -0 0.00129634)
(0.00132201 -0.000618146 -0 0.00132201 -0 0.00132201)
(0.00132082 -0.000617686 -0 0.00132081 -0 0.00132082)
(0.00132075 -0.000617903 -0 0.00132075 -0 0.00132075)
(0.00132251 -0.000619961 -0 0.00132252 -0 0.00132252)
(0.00134572 -0.000628202 -0 0.00134572 -0 0.00134572)
(0.00134452 -0.000627753 -0 0.00134451 -0 0.00134452)
(0.00134444 -0.000627963 -0 0.00134444 -0 0.00134444)
(0.00134623 -0.000630073 -0 0.00134623 -0 0.00134623)
(0.00136702 -0.000637299 -0 0.00136702 -0 0.00136702)
(0.00136582 -0.000636866 -0 0.00136581 -0 0.00136582)
(0.00136573 -0.000637054 -0 0.00136573 -0 0.00136573)
(0.00136753 -0.000639217 -0 0.00136754 -0 0.00136754)
(0.00138594 -0.000645484 -0 0.00138594 -0 0.00138594)
(0.00138474 -0.000645078 -0 0.00138474 -0 0.00138474)
(0.00138464 -0.000645233 -0 0.00138464 -0 0.00138464)
(0.00138646 -0.00064745 -0 0.00138646 -0 0.00138646)
(0.0014025 -0.000652768 -0 0.0014025 -0 0.0014025)
(0.00140131 -0.000652415 -0 0.00140131 -0 0.00140131)
(0.00140119 -0.000652525 -0 0.00140119 -0 0.00140119)
(0.00140302 -0.000654799 -0 0.00140302 -0 0.00140302)
(0.00141668 -0.000659083 -0 0.00141669 -0 0.00141668)
(0.00141551 -0.000658882 -0 0.00141551 -0 0.00141551)
(0.00141538 -0.000658922 -0 0.00141538 -0 0.00141538)
(0.00141721 -0.000661254 -0 0.00141721 -0 0.00141721)
(0.00142849 -0.000664573 -0 0.00142849 -0 0.00142849)
(0.00142732 -0.000664362 -0 0.00142731 -0 0.00142732)
(0.00142719 -0.000664391 -0 0.00142719 -0 0.00142719)
(0.00142901 -0.000666773 -0 0.00142901 -0 0.00142901)
(0.00143787 -0.000669061 -0 0.00143787 -0 0.00143787)
(0.00143669 -0.000668831 -0 0.00143668 -0 0.00143669)
(0.00143657 -0.000668877 -0 0.00143657 -0 0.00143657)
(0.00143838 -0.000671289 -0 0.00143838 -0 0.00143838)
(0.00144477 -0.000672491 -0 0.00144477 -0 0.00144477)
(0.00144358 -0.000672203 -0 0.00144357 -0 0.00144357)
(0.00144348 -0.000672316 -0 0.00144348 -0 0.00144348)
(0.00144527 -0.000674724 -0 0.00144527 -0 0.00144527)
(0.00144916 -0.000674866 -0 0.00144916 -0 0.00144916)
(0.00144793 -0.000674367 -0 0.00144793 -0 0.00144793)
(0.00144787 -0.000674646 -0 0.00144787 -0 0.00144787)
(0.00144965 -0.000677004 -0 0.00144965 -0 0.00144965)
(0.00145095 -0.000675859 -0 0.00145095 -0 0.00145095)
(0.00144972 -0.000675278 -0 0.00144972 -0 0.00144972)
(0.00144968 -0.000675783 -0 0.00144968 -0 0.00144968)
(0.00145145 -0.000678072 -0 0.00145145 -0 0.00145145)
(0.00145012 -0.000675536 -0 0.00145011 -0 0.00145012)
(0.00144891 -0.000675088 -0 0.00144891 -0 0.00144891)
(0.00144885 -0.000675464 -0 0.00144885 -0 0.00144885)
(0.00145065 -0.000677918 -0 0.00145065 -0 0.00145065)
(0.00144662 -0.000673886 -0 0.00144662 -0 0.00144662)
(0.00144546 -0.000673716 -0 0.00144546 -0 0.00144546)
(0.00144536 -0.000673726 -0 0.00144537 -0 0.00144537)
(0.0014472 -0.000676486 -0 0.0014472 -0 0.0014472)
(0.00144044 -0.000670689 -0 0.00144044 -0 0.00144044)
(0.00143934 -0.000670851 -0 0.00143934 -0 0.00143934)
(0.00143921 -0.000670701 -0 0.00143921 -0 0.00143921)
(0.00144108 -0.000673709 -0 0.00144108 -0 0.00144108)
(0.0014316 -0.000666347 -0 0.0014316 -0 0.0014316)
(0.00143053 -0.000666576 -0 0.00143053 -0 0.00143053)
(0.00143039 -0.000666421 -0 0.00143039 -0 0.00143039)
(0.00143228 -0.000669534 -0 0.00143228 -0 0.00143228)
(0.0014201 -0.000660661 -0 0.00142009 -0 0.0014201)
(0.00141904 -0.000660939 -0 0.00141903 -0 0.00141904)
(0.0014189 -0.000660778 -0 0.0014189 -0 0.0014189)
(0.0014208 -0.000664005 -0 0.00142081 -0 0.0014208)
(0.00140596 -0.000653661 -0 0.00140595 -0 0.00140595)
(0.00140489 -0.000653937 -0 0.00140488 -0 0.00140488)
(0.00140477 -0.000653795 -0 0.00140477 -0 0.00140477)
(0.00140667 -0.000657127 -0 0.00140667 -0 0.00140667)
(0.00138921 -0.000645382 -0 0.0013892 -0 0.0013892)
(0.00138811 -0.000645581 -0 0.0013881 -0 0.00138811)
(0.00138802 -0.000645522 -0 0.00138803 -0 0.00138802)
(0.0013899 -0.000648909 -0 0.0013899 -0 0.0013899)
(0.00136989 -0.00063589 -0 0.00136988 -0 0.00136988)
(0.00136875 -0.000635878 -0 0.00136875 -0 0.00136875)
(0.00136871 -0.000636109 -0 0.00136872 -0 0.00136871)
(0.00137054 -0.000639342 -0 0.00137055 -0 0.00137054)
(0.00134805 -0.000625393 -0 0.00134805 -0 0.00134805)
(0.0013469 -0.00062468 -0 0.0013469 -0 0.0013469)
(0.00134688 -0.000625571 -0 0.00134688 -0 0.00134688)
(0.00134865 -0.000628495 -0 0.00134866 -0 0.00134865)
(0.00132372 -0.000613342 -0 0.00132372 -0 0.00132372)
(0.0013226 -0.00061274 -0 0.00132259 -0 0.00132259)
(0.00132257 -0.000613492 -0 0.00132257 -0 0.00132257)
(0.00132429 -0.000616503 -0 0.00132429 -0 0.00132429)
(0.00129698 -0.000600109 -0 0.00129698 -0 0.00129698)
(0.00129591 -0.000599993 -0 0.0012959 -0 0.00129591)
(0.00129586 -0.00060032 -0 0.00129586 -0 0.00129586)
(0.00129753 -0.000603266 -0 0.00129753 -0 0.00129753)
(0.00126792 -0.000585842 -0 0.00126791 -0 0.00126791)
(0.00126687 -0.000585644 -0 0.00126687 -0 0.00126687)
(0.00126683 -0.000586077 -0 0.00126684 -0 0.00126683)
(0.00126844 -0.00058898 -0 0.00126844 -0 0.00126845)
(0.00123662 -0.000570555 -0 0.00123662 -0 0.00123662)
(0.00123557 -0.00057003 -0 0.00123557 -0 0.00123557)
(0.00123558 -0.00057081 -0 0.00123558 -0 0.00123558)
(0.00123714 -0.000573651 -0 0.00123714 -0 0.00123714)
(0.00120319 -0.000554149 -0 0.00120318 -0 0.00120318)
(0.00120212 -0.000553337 -0 0.00120212 -0 0.00120212)
(0.00120219 -0.000554859 -0 0.0012022 -0 0.00120219)
(0.00120369 -0.000557164 -0 0.00120369 -0 0.00120369)
(0.0011677 -0.000536775 -0 0.0011677 -0 0.0011677)
(0.00116665 -0.00053599 -0 0.00116665 -0 0.00116665)
(0.00116675 -0.000537552 -0 0.00116675 -0 0.00116675)
(0.00116821 -0.00053981 -0 0.00116821 -0 0.00116821)
(0.00113028 -0.000518493 -0 0.00113028 -0 0.00113028)
(0.00112927 -0.000517742 -0 0.00112927 -0 0.00112927)
(0.00112936 -0.000519233 -0 0.00112936 -0 0.00112936)
(0.0011308 -0.000521617 -0 0.0011308 -0 0.0011308)
(0.00109103 -0.000499356 -0 0.00109104 -0 0.00109103)
(0.0010901 -0.000498725 -0 0.0010901 -0 0.0010901)
(0.00109015 -0.000499873 -0 0.00109015 -0 0.00109015)
(0.00109158 -0.000502633 -0 0.00109158 -0 0.00109158)
(0.00105009 -0.000479408 -0 0.00105009 -0 0.00105009)
(0.00104927 -0.000479239 -0 0.00104927 -0 0.00104927)
(0.00104925 -0.000479579 -0 0.00104925 -0 0.00104925)
(0.00105067 -0.000482876 -0 0.00105066 -0 0.00105066)
(0.00100757 -0.000458644 -0 0.00100757 -0 0.00100757)
(0.00100689 -0.000459064 -0 0.00100689 -0 0.00100689)
(0.00100683 -0.000459193 -0 0.00100683 -0 0.00100683)
(0.00100818 -0.000462078 -0 0.00100817 -0 0.00100817)
(0.000963625 -0.00043694 -0 0.000963625 -0 0.000963625)
(0.000963051 -0.000437823 -0 0.000963058 -0 0.000963054)
(0.000962975 -0.000437779 -0 0.000962975 -0 0.000962975)
(0.000964257 -0.000440697 -0 0.00096425 -0 0.000964254)
(0.000918451 -0.000415533 -0 0.00091845 -0 0.00091845)
(0.000917899 -0.000415598 -0 0.000917905 -0 0.000917902)
(0.000917846 -0.000416097 -0 0.000917847 -0 0.000917847)
(0.000919052 -0.000418462 -0 0.000919046 -0 0.000919049)
(0.000872133 -0.000392797 -0 0.000872134 -0 0.000872134)
(0.000871611 -0.000392565 -0 0.000871617 -0 0.000871614)
(0.000871595 -0.000393737 -0 0.000871594 -0 0.000871594)
(0.000872723 -0.00039567 -0 0.000872718 -0 0.00087272)
(0.000824855 -0.000369544 -0 0.000824858 -0 0.000824857)
(0.000824439 -0.000370094 -0 0.000824443 -0 0.000824441)
(0.000824395 -0.000370374 -0 0.000824393 -0 0.000824394)
(0.00082544 -0.000372331 -0 0.000825435 -0 0.000825438)
(0.000776835 -0.000345863 -0 0.000776837 -0 0.000776836)
(0.000776509 -0.000346494 -0 0.000776511 -0 0.00077651)
(0.000776451 -0.000346709 -0 0.000776449 -0 0.00077645)
(0.000777416 -0.000348612 -0 0.000777414 -0 0.000777415)
(0.000728304 -0.00032185 -0 0.000728304 -0 0.000728304)
(0.000728044 -0.000322533 -0 0.000728043 -0 0.000728043)
(0.000727982 -0.000322674 -0 0.000727982 -0 0.000727982)
(0.000728883 -0.000324598 -0 0.000728883 -0 0.000728883)
(0.00067952 -0.000297595 -0 0.000679518 -0 0.000679519)
(0.000679301 -0.000298333 -0 0.000679299 -0 0.0006793)
(0.00067924 -0.00029837 -0 0.000679242 -0 0.000679241)
(0.000680103 -0.000300438 -0 0.000680105 -0 0.000680104)
(0.00063076 -0.00027317 -0 0.000630757 -0 0.000630758)
(0.000630564 -0.000274097 -0 0.000630562 -0 0.000630563)
(0.000630505 -0.000273889 -0 0.000630507 -0 0.000630506)
(0.000631364 -0.000276341 -0 0.000631366 -0 0.000631365)
(0.000582327 -0.00024858 -0 0.000582325 -0 0.000582326)
(0.000582116 -0.000249967 -0 0.000582114 -0 0.000582115)
(0.000582079 -0.000249329 -0 0.000582082 -0 0.000582081)
(0.000582953 -0.000252418 -0 0.000582955 -0 0.000582954)
(0.000534592 -0.000225025 -0 0.00053459 -0 0.000534591)
(0.000534342 -0.00022592 -0 0.000534342 -0 0.000534342)
(0.000534347 -0.000225793 -0 0.000534348 -0 0.000534347)
(0.000535163 -0.000228408 -0 0.000535163 -0 0.000535163)
(0.000487859 -0.000202344 -0 0.000487861 -0 0.00048786)
(0.000487549 -0.00020198 -0 0.000487551 -0 0.00048755)
(0.000487613 -0.000202977 -0 0.000487611 -0 0.000487612)
(0.000488314 -0.000204693 -0 0.000488312 -0 0.000488313)
(0.000442375 -0.000179652 -0 0.000442378 -0 0.000442377)
(0.000442055 -0.000179437 -0 0.000442059 -0 0.000442057)
(0.000442165 -0.000180513 -0 0.000442162 -0 0.000442163)
(0.000442747 -0.000181644 -0 0.000442743 -0 0.000442745)
(0.000398475 -0.000157737 -0 0.000398478 -0 0.000398477)
(0.000398188 -0.000158134 -0 0.000398191 -0 0.000398189)
(0.000398316 -0.000158494 -0 0.000398313 -0 0.000398315)
(0.000398796 -0.000159488 -0 0.000398793 -0 0.000398794)
(0.000356509 -0.000136803 -0 0.000356511 -0 0.00035651)
(0.000356277 -0.000137243 -0 0.000356279 -0 0.000356278)
(0.000356391 -0.000137523 -0 0.000356389 -0 0.00035639)
(0.0003568 -0.000138417 -0 0.000356798 -0 0.000356799)
(0.000316815 -0.00011705 -0 0.000316816 -0 0.000316816)
(0.000316627 -0.000117534 -0 0.000316627 -0 0.000316627)
(0.000316723 -0.000117735 -0 0.000316722 -0 0.000316722)
(0.000317083 -0.000118585 -0 0.000317083 -0 0.000317083)
(0.000279716 -9.87779e-05 -0 0.000279716 -0 0.000279716)
(0.000279542 -9.91578e-05 -0 0.000279541 -0 0.000279541)
(0.000279626 -9.93572e-05 -0 0.000279626 -0 0.000279626)
(0.000279951 -0.000100166 -0 0.000279952 -0 0.000279952)
(0.000245487 -8.20745e-05 -0 0.000245487 -0 0.000245487)
(0.0002453 -8.22584e-05 -0 0.000245298 -0 0.000245299)
(0.00024538 -8.25454e-05 -0 0.00024538 -0 0.00024538)
(0.000245682 -8.33171e-05 -0 0.000245683 -0 0.000245682)
(0.000214357 -6.70484e-05 -0 0.000214358 -0 0.000214358)
(0.000214142 -6.68569e-05 -0 0.000214141 -0 0.000214141)
(0.000214221 -6.73662e-05 -0 0.00021422 -0 0.000214221)
(0.00021451 -6.81775e-05 -0 0.000214511 -0 0.000214511)
(0.000186502 -5.37666e-05 -0 0.000186503 -0 0.000186503)
(0.000186301 -5.36874e-05 -0 0.000186301 -0 0.000186301)
(0.000186336 -5.36998e-05 -0 0.000186335 -0 0.000186335)
(0.000186623 -5.48027e-05 -0 0.000186623 -0 0.000186623)
(0.00016205 -4.22203e-05 -0 0.00016205 -0 0.00016205)
(0.000161879 -4.21246e-05 -0 0.00016188 -0 0.000161879)
(0.000161894 -4.21942e-05 -0 0.000161894 -0 0.000161894)
(0.00016215 -4.3062e-05 -0 0.000162149 -0 0.000162149)
(0.000141074 -3.22481e-05 -0 0.000141074 -0 0.000141074)
(0.000140952 -3.24562e-05 -0 0.000140952 -0 0.000140952)
(0.000140959 -3.23757e-05 -0 0.000140959 -0 0.000140959)
(0.00014117 -3.30376e-05 -0 0.000141169 -0 0.000141169)
(0.000123635 -2.41471e-05 -0 0.000123635 -0 0.000123635)
(0.000123514 -2.40361e-05 -0 0.000123514 -0 0.000123514)
(0.000123547 -2.42135e-05 -0 0.000123547 -0 0.000123547)
(0.000123708 -2.45699e-05 -0 0.000123707 -0 0.000123708)
(0.000109693 -1.725e-05 -0 0.000109693 -0 0.000109693)
(0.00010959 -1.71883e-05 -0 0.000109591 -0 0.000109591)
(0.000109638 -1.73761e-05 -0 0.000109638 -0 0.000109638)
(0.000109756 -1.75264e-05 -0 0.000109755 -0 0.000109756)
(9.92273e-05 -1.14877e-05 -0 9.92273e-05 -0 9.92274e-05)
(9.91661e-05 -1.15296e-05 -0 9.91662e-05 -0 9.91661e-05)
(9.91994e-05 -1.15702e-05 -0 9.91994e-05 -0 9.91994e-05)
(9.92889e-05 -1.16708e-05 -0 9.92887e-05 -0 9.92888e-05)
(9.22396e-05 -6.56285e-06 -0 9.22396e-05 -0 9.22396e-05)
(9.22121e-05 -6.60174e-06 -0 9.22121e-05 -0 9.22121e-05)
(9.22183e-05 -6.61314e-06 -0 9.22183e-05 -0 9.22183e-05)
(9.22919e-05 -6.68119e-06 -0 9.22919e-05 -0 9.22919e-05)
(8.87198e-05 -2.13819e-06 -0 8.87198e-05 -0 8.87198e-05)
(8.8707e-05 -2.15772e-06 -0 8.87069e-05 -0 8.87069e-05)
(8.87087e-05 -2.16174e-06 -0 8.87087e-05 -0 8.87087e-05)
(8.87738e-05 -2.18539e-06 -0 8.87739e-05 -0 8.87739e-05)
)
;

boundaryField
{
    inlet
    {
        type            cyclic;
    }
    outlet
    {
        type            cyclic;
    }
    fixedWalls-bottom
    {
        type            kqRWallFunction;
        value           nonuniform List<symmTensor> 4((4.96326e-10 -0 -0 4.96326e-10 -0 4.96326e-10) (4.96099e-10 -0 -0 4.96099e-10 -0 4.96099e-10) (4.96311e-10 -0 -0 4.96311e-10 -0 4.96311e-10) (4.97132e-10 -0 -0 4.97132e-10 -0 4.97132e-10));
    }
    fixedWalls-top
    {
        type            symmetry;
    }
    frontAndBack
    {
        type            empty;
    }
}


// ************************************************************************* //
